 Entering Gaussian System, Link 0=g03
 Input=07.gjf
 Output=07.log
 Initial command:
 /nfs/home/atuncer/Progs/g03/l1.exe /tmp/Gau-18879.inp -scrdir=/tmp/
 Entering Link 1 = /nfs/home/atuncer/Progs/g03/l1.exe PID=     18880.
  
 Copyright (c) 1988,1990,1992,1993,1995,1998,2003,2004, Gaussian, Inc.
                  All Rights Reserved.
  
 This is the Gaussian(R) 03 program.  It is based on the
 the Gaussian(R) 98 system (copyright 1998, Gaussian, Inc.),
 the Gaussian(R) 94 system (copyright 1995, Gaussian, Inc.),
 the Gaussian 92(TM) system (copyright 1992, Gaussian, Inc.),
 the Gaussian 90(TM) system (copyright 1990, Gaussian, Inc.),
 the Gaussian 88(TM) system (copyright 1988, Gaussian, Inc.),
 the Gaussian 86(TM) system (copyright 1986, Carnegie Mellon
 University), and the Gaussian 82(TM) system (copyright 1983,
 Carnegie Mellon University). Gaussian is a federally registered
 trademark of Gaussian, Inc.
  
 This software contains proprietary and confidential information,
 including trade secrets, belonging to Gaussian, Inc.
  
 This software is provided under written license and may be
 used, copied, transmitted, or stored only in accord with that
 written license.
  
 The following legend is applicable only to US Government
 contracts under FAR:
  
                    RESTRICTED RIGHTS LEGEND
  
 Use, reproduction and disclosure by the US Government is
 subject to restrictions as set forth in subparagraphs (a)
 and (c) of the Commercial Computer Software - Restricted
 Rights clause in FAR 52.227-19.
  
 Gaussian, Inc.
 340 Quinnipiac St., Bldg. 40, Wallingford CT 06492
  
  
 ---------------------------------------------------------------
 Warning -- This program may not be used in any manner that
 competes with the business of Gaussian, Inc. or will provide
 assistance to any competitor of Gaussian, Inc.  The licensee
 of this program is prohibited from giving any competitor of
 Gaussian, Inc. access to this program.  By using this program,
 the user acknowledges that Gaussian, Inc. is engaged in the
 business of creating and licensing software in the field of
 computational chemistry and represents and warrants to the
 licensee that it is not a competitor of Gaussian, Inc. and that
 it will not use this program in any manner prohibited above.
 ---------------------------------------------------------------
  

 Cite this work as:
 Gaussian 03, Revision D.01,
 M. J. Frisch, G. W. Trucks, H. B. Schlegel, G. E. Scuseria, 
 M. A. Robb, J. R. Cheeseman, J. A. Montgomery, Jr., T. Vreven, 
 K. N. Kudin, J. C. Burant, J. M. Millam, S. S. Iyengar, J. Tomasi, 
 V. Barone, B. Mennucci, M. Cossi, G. Scalmani, N. Rega, 
 G. A. Petersson, H. Nakatsuji, M. Hada, M. Ehara, K. Toyota, 
 R. Fukuda, J. Hasegawa, M. Ishida, T. Nakajima, Y. Honda, O. Kitao, 
 H. Nakai, M. Klene, X. Li, J. E. Knox, H. P. Hratchian, J. B. Cross, 
 V. Bakken, C. Adamo, J. Jaramillo, R. Gomperts, R. E. Stratmann, 
 O. Yazyev, A. J. Austin, R. Cammi, C. Pomelli, J. W. Ochterski, 
 P. Y. Ayala, K. Morokuma, G. A. Voth, P. Salvador, J. J. Dannenberg, 
 V. G. Zakrzewski, S. Dapprich, A. D. Daniels, M. C. Strain, 
 O. Farkas, D. K. Malick, A. D. Rabuck, K. Raghavachari, 
 J. B. Foresman, J. V. Ortiz, Q. Cui, A. G. Baboul, S. Clifford, 
 J. Cioslowski, B. B. Stefanov, G. Liu, A. Liashenko, P. Piskorz, 
 I. Komaromi, R. L. Martin, D. J. Fox, T. Keith, M. A. Al-Laham, 
 C. Y. Peng, A. Nanayakkara, M. Challacombe, P. M. W. Gill, 
 B. Johnson, W. Chen, M. W. Wong, C. Gonzalez, and J. A. Pople, 
 Gaussian, Inc., Wallingford CT, 2004.
 
 ******************************************
 Gaussian 03:  AM64L-G03RevD.01 13-Oct-2005
                10-Nov-2009 
 ******************************************
 %mem=4gb
 %nproc=4
 Will use up to    4 processors via shared memory.
 -------------------------
 # b3lyp/6-31+g** opt freq
 -------------------------
 1/14=-1,18=20,26=3,38=1/1,3;
 2/9=110,17=6,18=5,40=1/2;
 3/5=1,6=6,7=111,11=2,16=1,25=1,30=1,74=-5/1,2,3;
 4//1;
 5/5=2,38=5/2;
 6/7=2,8=2,9=2,10=2,28=1/1;
 7//1,2,3,16;
 1/14=-1,18=20/3(3);
 2/9=110/2;
 6/7=2,8=2,9=2,10=2,19=2,28=1/1;
 99//99;
 2/9=110/2;
 3/5=1,6=6,7=111,11=2,16=1,25=1,30=1,74=-5/1,2,3;
 4/5=5,16=3/1;
 5/5=2,38=5/2;
 7//1,2,3,16;
 1/14=-1,18=20/3(-5);
 2/9=110/2;
 6/7=2,8=2,9=2,10=2,19=2,28=1/1;
 99/9=1/99;
 ---------------
 gaba_at and plp
 ---------------
 Symbolic Z-matrix:
 Charge =  1 Multiplicity = 1
 C
 N                    1    B1
 C                    2    B2       1    A1
 C                    3    B3       2    A2       1    D1       0
 C                    4    B4       3    A3       2    D2       0
 C                    1    B5       2    A4       3    D3       0
 C                    3    B6       2    A5       1    D4       0
 O                    4    B7       3    A6       2    D5       0
 C                    5    B8       4    A7       3    D6       0
 N                    9    B9       5    A8       4    D7       0
 C                    10   B10      9    A9       5    D8       0
 C                    11   B11      10   A10      9    D9       0
 C                    12   B12      11   A11      10   D10      0
 C                    13   B13      12   A12      11   D11      0
 O                    14   B14      13   A13      12   D12      0
 C                    6    B15      1    A14      2    D13      0
 C                    11   B16      10   A15      9    D14      0
 C                    17   B17      11   A16      10   D15      0
 O                    14   B18      13   A17      12   D16      0
 H                    16   B19      6    A18      1    D17      0
 H                    1    B20      2    A19      3    D18      0
 H                    2    B21      1    A20      6    D19      0
 H                    7    B22      3    A21      2    D20      0
 H                    7    B23      3    A22      2    D21      0
 H                    7    B24      3    A23      2    D22      0
 H                    9    B25      5    A24      4    D23      0
 H                    16   B26      6    A25      1    D24      0
 H                    16   B27      6    A26      1    D25      0
 H                    18   B28      17   A27      11   D26      0
 H                    18   B29      17   A28      11   D27      0
 H                    17   B30      11   A29      10   D28      0
 H                    12   B31      11   A30      10   D29      0
 H                    12   B32      11   A31      10   D30      0
 H                    10   B33      9    A32      5    D31      0
 H                    13   B34      12   A33      11   D32      0
 H                    13   B35      12   A34      11   D33      0
 H                    15   B36      14   A35      13   D34      0
 H                    18   B37      17   A36      11   D35      0
       Variables:
  B1                    1.36991                  
  B2                    1.33311                  
  B3                    1.45057                  
  B4                    1.4514                   
  B5                    1.37832                  
  B6                    1.48884                  
  B7                    1.26597                  
  B8                    1.43908                  
  B9                    1.31549                  
  B10                   1.42204                  
  B11                   1.50884                  
  B12                   1.52889                  
  B13                   1.51613                  
  B14                   1.34011                  
  B15                   1.50747                  
  B16                   1.35363                  
  B17                   1.49487                  
  B18                   1.21945                  
  B19                   1.09432                  
  B20                   1.0811                   
  B21                   1.01685                  
  B22                   1.09317                  
  B23                   1.09523                  
  B24                   1.09506                  
  B25                   1.08849                  
  B26                   1.09192                  
  B27                   1.09375                  
  B28                   1.09757                  
  B29                   1.08613                  
  B30                   1.09028                  
  B31                   1.09719                  
  B32                   1.09746                  
  B33                   1.05238                  
  B34                   1.09486                  
  B35                   1.09487                  
  B36                   0.97374                  
  B37                   1.09698                  
  A1                  125.67226                  
  A2                  118.07701                  
  A3                  117.2298                   
  A4                  120.0816                   
  A5                  120.93494                  
  A6                  118.82447                  
  A7                  118.81965                  
  A8                  120.10901                  
  A9                  129.76121                  
  A10                 113.79964                  
  A11                 119.07195                  
  A12                 111.409                    
  A13                 111.4557                   
  A14                 118.7443                   
  A15                 113.53227                  
  A16                 132.01789                  
  A17                 125.9712                   
  A18                 111.14484                  
  A19                 116.09419                  
  A20                 117.0755                   
  A21                 112.13974                  
  A22                 109.93376                  
  A23                 109.91398                  
  A24                 120.30867                  
  A25                 110.59462                  
  A26                 111.62312                  
  A27                 109.40769                  
  A28                 115.38402                  
  A29                 115.04935                  
  A30                 107.95811                  
  A31                 107.49433                  
  A32                 111.36656                  
  A33                 112.34898                  
  A34                 112.29707                  
  A35                 108.7353                   
  A36                 109.25759                  
  D1                    0.01353                  
  D2                    0.26816                  
  D3                   -0.12936                  
  D4                 -179.91963                  
  D5                 -179.80991                  
  D6                  179.34402                  
  D7                    0.39477                  
  D8                 -179.31921                  
  D9                    1.72739                  
  D10                 177.75192                  
  D11                -177.88168                  
  D12                 179.33078                  
  D13                 179.71208                  
  D14                -178.48449                  
  D15                 179.85459                  
  D16                  -0.68304                  
  D17                -118.54525                  
  D18                 179.8664                   
  D19                 179.88763                  
  D20                  -0.70736                  
  D21                 121.0005                   
  D22                -122.45511                  
  D23                -179.60445                  
  D24                   1.5729                   
  D25                 122.15754                  
  D26                 119.9022                   
  D27                  -2.39136                  
  D28                  -0.13716                  
  D29                 -58.23536                  
  D30                  54.68414                  
  D31                   0.26632                  
  D32                  62.3609                   
  D33                 -57.9269                   
  D34                 179.96668                  
  D35                -124.5063                   
 

 GradGradGradGradGradGradGradGradGradGradGradGradGradGradGradGradGradGrad
 Berny optimization.
 Initialization pass.
                           ----------------------------
                           !    Initial Parameters    !
                           ! (Angstroms and Degrees)  !
 --------------------------                            --------------------------
 ! Name  Definition              Value          Derivative Info.                !
 --------------------------------------------------------------------------------
 ! R1    R(1,2)                  1.3699         estimate D2E/DX2                !
 ! R2    R(1,6)                  1.3783         estimate D2E/DX2                !
 ! R3    R(1,21)                 1.0811         estimate D2E/DX2                !
 ! R4    R(2,3)                  1.3331         estimate D2E/DX2                !
 ! R5    R(2,22)                 1.0169         estimate D2E/DX2                !
 ! R6    R(3,4)                  1.4506         estimate D2E/DX2                !
 ! R7    R(3,7)                  1.4888         estimate D2E/DX2                !
 ! R8    R(4,5)                  1.4514         estimate D2E/DX2                !
 ! R9    R(4,8)                  1.266          estimate D2E/DX2                !
 ! R10   R(5,6)                  1.4264         estimate D2E/DX2                !
 ! R11   R(5,9)                  1.4391         estimate D2E/DX2                !
 ! R12   R(6,16)                 1.5075         estimate D2E/DX2                !
 ! R13   R(7,23)                 1.0932         estimate D2E/DX2                !
 ! R14   R(7,24)                 1.0952         estimate D2E/DX2                !
 ! R15   R(7,25)                 1.0951         estimate D2E/DX2                !
 ! R16   R(8,34)                 1.6235         estimate D2E/DX2                !
 ! R17   R(9,10)                 1.3155         estimate D2E/DX2                !
 ! R18   R(9,26)                 1.0885         estimate D2E/DX2                !
 ! R19   R(10,11)                1.422          estimate D2E/DX2                !
 ! R20   R(10,34)                1.0524         estimate D2E/DX2                !
 ! R21   R(11,12)                1.5088         estimate D2E/DX2                !
 ! R22   R(11,17)                1.3536         estimate D2E/DX2                !
 ! R23   R(12,13)                1.5289         estimate D2E/DX2                !
 ! R24   R(12,32)                1.0972         estimate D2E/DX2                !
 ! R25   R(12,33)                1.0975         estimate D2E/DX2                !
 ! R26   R(13,14)                1.5161         estimate D2E/DX2                !
 ! R27   R(13,35)                1.0949         estimate D2E/DX2                !
 ! R28   R(13,36)                1.0949         estimate D2E/DX2                !
 ! R29   R(14,15)                1.3401         estimate D2E/DX2                !
 ! R30   R(14,19)                1.2195         estimate D2E/DX2                !
 ! R31   R(15,37)                0.9737         estimate D2E/DX2                !
 ! R32   R(16,20)                1.0943         estimate D2E/DX2                !
 ! R33   R(16,27)                1.0919         estimate D2E/DX2                !
 ! R34   R(16,28)                1.0937         estimate D2E/DX2                !
 ! R35   R(17,18)                1.4949         estimate D2E/DX2                !
 ! R36   R(17,31)                1.0903         estimate D2E/DX2                !
 ! R37   R(18,29)                1.0976         estimate D2E/DX2                !
 ! R38   R(18,30)                1.0861         estimate D2E/DX2                !
 ! R39   R(18,38)                1.097          estimate D2E/DX2                !
 ! A1    A(2,1,6)              120.0816         estimate D2E/DX2                !
 ! A2    A(2,1,21)             116.0942         estimate D2E/DX2                !
 ! A3    A(6,1,21)             123.8242         estimate D2E/DX2                !
 ! A4    A(1,2,3)              125.6723         estimate D2E/DX2                !
 ! A5    A(1,2,22)             117.0755         estimate D2E/DX2                !
 ! A6    A(3,2,22)             117.2522         estimate D2E/DX2                !
 ! A7    A(2,3,4)              118.077          estimate D2E/DX2                !
 ! A8    A(2,3,7)              120.9349         estimate D2E/DX2                !
 ! A9    A(4,3,7)              120.988          estimate D2E/DX2                !
 ! A10   A(3,4,5)              117.2298         estimate D2E/DX2                !
 ! A11   A(3,4,8)              118.8245         estimate D2E/DX2                !
 ! A12   A(5,4,8)              123.9457         estimate D2E/DX2                !
 ! A13   A(4,5,6)              120.5263         estimate D2E/DX2                !
 ! A14   A(4,5,9)              118.8197         estimate D2E/DX2                !
 ! A15   A(6,5,9)              120.6538         estimate D2E/DX2                !
 ! A16   A(1,6,5)              118.4117         estimate D2E/DX2                !
 ! A17   A(1,6,16)             118.7443         estimate D2E/DX2                !
 ! A18   A(5,6,16)             122.8435         estimate D2E/DX2                !
 ! A19   A(3,7,23)             112.1397         estimate D2E/DX2                !
 ! A20   A(3,7,24)             109.9338         estimate D2E/DX2                !
 ! A21   A(3,7,25)             109.914          estimate D2E/DX2                !
 ! A22   A(23,7,24)            109.2191         estimate D2E/DX2                !
 ! A23   A(23,7,25)            109.2613         estimate D2E/DX2                !
 ! A24   A(24,7,25)            106.1928         estimate D2E/DX2                !
 ! A25   A(5,9,10)             120.109          estimate D2E/DX2                !
 ! A26   A(5,9,26)             120.3087         estimate D2E/DX2                !
 ! A27   A(10,9,26)            119.5823         estimate D2E/DX2                !
 ! A28   A(9,10,11)            129.7612         estimate D2E/DX2                !
 ! A29   A(9,10,34)            111.3666         estimate D2E/DX2                !
 ! A30   A(11,10,34)           118.871          estimate D2E/DX2                !
 ! A31   A(10,11,12)           113.7996         estimate D2E/DX2                !
 ! A32   A(10,11,17)           113.5323         estimate D2E/DX2                !
 ! A33   A(12,11,17)           132.6677         estimate D2E/DX2                !
 ! A34   A(11,12,13)           119.072          estimate D2E/DX2                !
 ! A35   A(11,12,32)           107.9581         estimate D2E/DX2                !
 ! A36   A(11,12,33)           107.4943         estimate D2E/DX2                !
 ! A37   A(13,12,32)           108.3769         estimate D2E/DX2                !
 ! A38   A(13,12,33)           107.9845         estimate D2E/DX2                !
 ! A39   A(32,12,33)           105.1083         estimate D2E/DX2                !
 ! A40   A(12,13,14)           111.409          estimate D2E/DX2                !
 ! A41   A(12,13,35)           112.349          estimate D2E/DX2                !
 ! A42   A(12,13,36)           112.2971         estimate D2E/DX2                !
 ! A43   A(14,13,35)           106.7726         estimate D2E/DX2                !
 ! A44   A(14,13,36)           106.9545         estimate D2E/DX2                !
 ! A45   A(35,13,36)           106.6972         estimate D2E/DX2                !
 ! A46   A(13,14,15)           111.4557         estimate D2E/DX2                !
 ! A47   A(13,14,19)           125.9712         estimate D2E/DX2                !
 ! A48   A(15,14,19)           122.5731         estimate D2E/DX2                !
 ! A49   A(14,15,37)           108.7353         estimate D2E/DX2                !
 ! A50   A(6,16,20)            111.1448         estimate D2E/DX2                !
 ! A51   A(6,16,27)            110.5946         estimate D2E/DX2                !
 ! A52   A(6,16,28)            111.6231         estimate D2E/DX2                !
 ! A53   A(20,16,27)           108.1318         estimate D2E/DX2                !
 ! A54   A(20,16,28)           106.9387         estimate D2E/DX2                !
 ! A55   A(27,16,28)           108.2495         estimate D2E/DX2                !
 ! A56   A(11,17,18)           132.0179         estimate D2E/DX2                !
 ! A57   A(11,17,31)           115.0494         estimate D2E/DX2                !
 ! A58   A(18,17,31)           112.9328         estimate D2E/DX2                !
 ! A59   A(17,18,29)           109.4077         estimate D2E/DX2                !
 ! A60   A(17,18,30)           115.384          estimate D2E/DX2                !
 ! A61   A(17,18,38)           109.2576         estimate D2E/DX2                !
 ! A62   A(29,18,30)           108.2283         estimate D2E/DX2                !
 ! A63   A(29,18,38)           105.9631         estimate D2E/DX2                !
 ! A64   A(30,18,38)           108.1818         estimate D2E/DX2                !
 ! D1    D(6,1,2,3)             -0.1294         estimate D2E/DX2                !
 ! D2    D(6,1,2,22)           179.8876         estimate D2E/DX2                !
 ! D3    D(21,1,2,3)           179.8664         estimate D2E/DX2                !
 ! D4    D(21,1,2,22)           -0.1166         estimate D2E/DX2                !
 ! D5    D(2,1,6,5)             -0.0541         estimate D2E/DX2                !
 ! D6    D(2,1,6,16)           179.7121         estimate D2E/DX2                !
 ! D7    D(21,1,6,5)           179.9504         estimate D2E/DX2                !
 ! D8    D(21,1,6,16)           -0.2833         estimate D2E/DX2                !
 ! D9    D(1,2,3,4)              0.0135         estimate D2E/DX2                !
 ! D10   D(1,2,3,7)           -179.9196         estimate D2E/DX2                !
 ! D11   D(22,2,3,4)           179.9965         estimate D2E/DX2                !
 ! D12   D(22,2,3,7)             0.0633         estimate D2E/DX2                !
 ! D13   D(2,3,4,5)              0.2682         estimate D2E/DX2                !
 ! D14   D(2,3,4,8)           -179.8099         estimate D2E/DX2                !
 ! D15   D(7,3,4,5)           -179.7987         estimate D2E/DX2                !
 ! D16   D(7,3,4,8)              0.1232         estimate D2E/DX2                !
 ! D17   D(2,3,7,23)            -0.7074         estimate D2E/DX2                !
 ! D18   D(2,3,7,24)           121.0005         estimate D2E/DX2                !
 ! D19   D(2,3,7,25)          -122.4551         estimate D2E/DX2                !
 ! D20   D(4,3,7,23)           179.3614         estimate D2E/DX2                !
 ! D21   D(4,3,7,24)           -58.9307         estimate D2E/DX2                !
 ! D22   D(4,3,7,25)            57.6137         estimate D2E/DX2                !
 ! D23   D(3,4,5,6)             -0.4455         estimate D2E/DX2                !
 ! D24   D(3,4,5,9)            179.344          estimate D2E/DX2                !
 ! D25   D(8,4,5,6)            179.637          estimate D2E/DX2                !
 ! D26   D(8,4,5,9)             -0.5735         estimate D2E/DX2                !
 ! D27   D(4,5,6,1)              0.341          estimate D2E/DX2                !
 ! D28   D(4,5,6,16)          -179.415          estimate D2E/DX2                !
 ! D29   D(9,5,6,1)           -179.4446         estimate D2E/DX2                !
 ! D30   D(9,5,6,16)             0.7993         estimate D2E/DX2                !
 ! D31   D(4,5,9,10)             0.3948         estimate D2E/DX2                !
 ! D32   D(4,5,9,26)          -179.6044         estimate D2E/DX2                !
 ! D33   D(6,5,9,10)          -179.816          estimate D2E/DX2                !
 ! D34   D(6,5,9,26)             0.1848         estimate D2E/DX2                !
 ! D35   D(1,6,16,20)         -118.5453         estimate D2E/DX2                !
 ! D36   D(1,6,16,27)            1.5729         estimate D2E/DX2                !
 ! D37   D(1,6,16,28)          122.1575         estimate D2E/DX2                !
 ! D38   D(5,6,16,20)           61.21           estimate D2E/DX2                !
 ! D39   D(5,6,16,27)         -178.6718         estimate D2E/DX2                !
 ! D40   D(5,6,16,28)          -58.0872         estimate D2E/DX2                !
 ! D41   D(5,9,10,11)         -179.3192         estimate D2E/DX2                !
 ! D42   D(5,9,10,34)            0.2663         estimate D2E/DX2                !
 ! D43   D(26,9,10,11)           0.68           estimate D2E/DX2                !
 ! D44   D(26,9,10,34)        -179.7345         estimate D2E/DX2                !
 ! D45   D(9,10,11,12)           1.7274         estimate D2E/DX2                !
 ! D46   D(9,10,11,17)        -178.4845         estimate D2E/DX2                !
 ! D47   D(34,10,11,12)       -177.8318         estimate D2E/DX2                !
 ! D48   D(34,10,11,17)          1.9563         estimate D2E/DX2                !
 ! D49   D(10,11,12,13)        177.7519         estimate D2E/DX2                !
 ! D50   D(10,11,12,32)        -58.2354         estimate D2E/DX2                !
 ! D51   D(10,11,12,33)         54.6841         estimate D2E/DX2                !
 ! D52   D(17,11,12,13)         -1.9839         estimate D2E/DX2                !
 ! D53   D(17,11,12,32)        122.0288         estimate D2E/DX2                !
 ! D54   D(17,11,12,33)       -125.0517         estimate D2E/DX2                !
 ! D55   D(10,11,17,18)        179.8546         estimate D2E/DX2                !
 ! D56   D(10,11,17,31)         -0.1372         estimate D2E/DX2                !
 ! D57   D(12,11,17,18)         -0.4091         estimate D2E/DX2                !
 ! D58   D(12,11,17,31)        179.5992         estimate D2E/DX2                !
 ! D59   D(11,12,13,14)       -177.8817         estimate D2E/DX2                !
 ! D60   D(11,12,13,35)         62.3609         estimate D2E/DX2                !
 ! D61   D(11,12,13,36)        -57.9269         estimate D2E/DX2                !
 ! D62   D(32,12,13,14)         58.31           estimate D2E/DX2                !
 ! D63   D(32,12,13,35)        -61.4474         estimate D2E/DX2                !
 ! D64   D(32,12,13,36)        178.2648         estimate D2E/DX2                !
 ! D65   D(33,12,13,14)        -55.0559         estimate D2E/DX2                !
 ! D66   D(33,12,13,35)       -174.8133         estimate D2E/DX2                !
 ! D67   D(33,12,13,36)         64.8989         estimate D2E/DX2                !
 ! D68   D(12,13,14,15)        179.3308         estimate D2E/DX2                !
 ! D69   D(12,13,14,19)         -0.683          estimate D2E/DX2                !
 ! D70   D(35,13,14,15)        -57.6619         estimate D2E/DX2                !
 ! D71   D(35,13,14,19)        122.3243         estimate D2E/DX2                !
 ! D72   D(36,13,14,15)         56.2668         estimate D2E/DX2                !
 ! D73   D(36,13,14,19)       -123.747          estimate D2E/DX2                !
 ! D74   D(13,14,15,37)        179.9667         estimate D2E/DX2                !
 ! D75   D(19,14,15,37)         -0.02           estimate D2E/DX2                !
 ! D76   D(11,17,18,29)        119.9022         estimate D2E/DX2                !
 ! D77   D(11,17,18,30)         -2.3914         estimate D2E/DX2                !
 ! D78   D(11,17,18,38)       -124.5063         estimate D2E/DX2                !
 ! D79   D(31,17,18,29)        -60.1059         estimate D2E/DX2                !
 ! D80   D(31,17,18,30)        177.6005         estimate D2E/DX2                !
 ! D81   D(31,17,18,38)         55.4856         estimate D2E/DX2                !
 --------------------------------------------------------------------------------
 Trust Radius=3.00D-01 FncErr=1.00D-07 GrdErr=1.00D-06
 Number of steps in this run= 194 maximum allowed number of steps= 228.
 GradGradGradGradGradGradGradGradGradGradGradGradGradGradGradGradGradGrad

                          Input orientation:                          
 ---------------------------------------------------------------------
 Center     Atomic     Atomic              Coordinates (Angstroms)
 Number     Number      Type              X           Y           Z
 ---------------------------------------------------------------------
    1          6             0        0.000000    0.000000    0.000000
    2          7             0        0.000000    0.000000    1.369910
    3          6             0        1.082971    0.000000    2.147309
    4          6             0        2.383940    0.000302    1.505721
    5          6             0        2.408746    0.006624    0.054550
    6          6             0        1.192673    0.002693   -0.690858
    7          6             0        0.960013   -0.001791    3.631060
    8          8             0        3.421908   -0.003374    2.230481
    9          6             0        3.681201    0.021550   -0.617459
   10          7             0        4.796198    0.021391    0.080614
   11          6             0        6.147015    0.047451   -0.363013
   12          6             0        6.293998    0.121469   -1.862855
   13          6             0        7.695084    0.208120   -2.468633
   14          6             0        7.638613    0.326286   -3.979091
   15          8             0        8.865779    0.416819   -4.509917
   16          6             0        1.157515   -0.004028   -2.197900
   17          6             0        7.048200    0.005430    0.646149
   18          6             0        8.543053    0.008764    0.653539
   19          8             0        6.626468    0.340468   -4.659108
   20          1             0        1.640167   -0.900060   -2.600024
   21          1             0       -0.970899   -0.002264   -0.475518
   22          1             0       -0.905412   -0.000269    1.832744
   23          1             0       -0.083055    0.009484    3.958027
   24          1             0        1.458383   -0.884405    4.045977
   25          1             0        1.479123    0.866930    4.049393
   26          1             0        3.728026    0.033044   -1.704879
   27          1             0        0.126960    0.017540   -2.558149
   28          1             0        1.685028    0.857477   -2.617208
   29          1             0        8.903063    0.883507    1.210202
   30          1             0        9.013499    0.011835   -0.325415
   31          1             0        6.618518   -0.039633    1.647172
   32          1             0        5.782937   -0.747387   -2.296135
   33          1             0        5.721218    0.991680   -2.207931
   34          1             0        4.601182    0.004971    1.114633
   35          1             0        8.301447   -0.675203   -2.243273
   36          1             0        8.253618    1.075173   -2.101209
   37          1             0        8.783424    0.490153   -5.477393
   38          1             0        8.904096   -0.868702    1.204060
 ---------------------------------------------------------------------
                    Distance matrix (angstroms):
                    1          2          3          4          5
     1  C    0.000000
     2  N    1.369910   0.000000
     3  C    2.404946   1.333108   0.000000
     4  C    2.819640   2.387806   1.450570   0.000000
     5  C    2.409372   2.744498   2.477370   1.451397   0.000000
     6  C    1.378318   2.381017   2.840288   2.498817   1.426353
     7  C    3.755825   2.456507   1.488838   2.558249   3.858798
     8  O    4.084668   3.528463   2.340418   1.265965   2.400266
     9  C    3.732688   4.183461   3.794101   2.488219   1.439084
    10  N    4.796923   4.966513   4.249675   2.801850   2.387640
    11  C    6.157907   6.386788   5.652301   4.201800   3.761739
    12  C    6.565013   7.076718   6.576547   5.162416   4.334146
    13  C    8.084045   8.601863   8.066615   6.636787   5.861095
    14  C    8.619051   9.330954   8.978624   7.602699   6.612410
    15  O    9.955658  10.646508  10.250097   8.853001   7.918074
    16  C    2.484074   3.750883   4.345850   3.901404   2.576669
    17  C    7.077758   7.085265   6.151216   4.742806   4.677021
    18  C    8.568018   8.573040   7.608169   6.217793   6.163482
    19  O    8.107607   8.965214   8.784850   7.491320   6.333973
    20  H    3.203183   4.388694   4.863923   4.268606   2.908531
    21  H    1.081095   2.085246   3.331307   3.896185   3.420972
    22  H    2.044192   1.016851   2.013112   3.305568   3.761072
    23  H    3.958909   2.589466   2.153696   3.478498   4.631005
    24  H    4.390784   3.173387   2.127920   2.844690   4.198643
    25  H    4.397381   3.181038   2.127540   2.835490   4.190835
    26  H    4.099498   4.832556   4.672982   3.480747   2.199270
    27  H    2.561358   3.930150   4.801625   4.648580   3.468841
    28  H    3.228678   4.412674   4.878356   4.268697   2.895860
    29  H    9.028273   8.948219   7.925439   6.585313   6.654368
    30  H    9.019379   9.171556   8.307092   6.877808   6.615676
    31  H    6.820522   6.624441   5.558235   4.237128   4.501196
    32  H    6.266832   6.887731   6.510949   5.154254   4.180840
    33  H    6.212143   6.820316   6.439323   5.090331   4.130573
    34  H    4.734269   4.608261   3.666640   2.251474   2.435273
    35  H    8.625670   9.078822   8.475818   7.037624   6.361510
    36  H    8.584479   9.018142   8.403813   6.972691   6.320730
    37  H   10.362945  11.147840  10.847732   9.484579   8.454154
    38  H    9.027033   8.947909   7.925550   6.584724   6.654107
                    6          7          8          9         10
     6  C    0.000000
     7  C    4.328178   0.000000
     8  O    3.674745   2.832411   0.000000
     9  C    2.489682   5.045327   2.859828   0.000000
    10  N    3.685229   5.227095   2.551708   1.315494   0.000000
    11  C    4.965379   6.546757   3.762313   2.479042   1.422037
    12  C    5.235571   7.658309   5.001988   2.896153   2.455706
    13  C    6.744185   9.089087   6.355033   4.424128   3.864851
    14  C    7.243434  10.130436   7.513193   5.201399   4.965229
    15  O    8.580983  11.355698   8.674402   6.495176   6.147425
    16  C    1.507467   5.832305   4.973735   2.977825   4.293284
    17  C    6.006229   6.780544   3.957294   3.596337   2.321981
    18  C    7.472317   8.146670   5.358452   5.025256   3.790425
    19  O    6.737004  10.047524   7.606173   5.011111   5.090842
    20  H    2.158733   6.332133   5.226130   2.990945   4.242102
    21  H    2.174267   4.537885   5.159378   4.654326   5.793897
    22  H    3.281850   2.591090   4.345561   5.200095   5.964795
    23  H    4.820753   1.093171   3.907601   5.924933   6.232301
    24  H    4.826505   1.095234   2.815612   5.244931   5.261708
    25  H    4.826898   1.095059   2.800051   5.229084   5.241100
    26  H    2.730783   6.011269   3.947416   1.088489   2.080652
    27  H    2.150055   6.245051   5.812753   4.049559   5.363289
    28  H    2.164230   6.348609   5.220910   2.946604   4.201983
    29  H    7.989992   8.350830   5.645404   5.599210   4.345751
    30  H    7.829365   8.972877   6.148067   5.340298   4.236813
    31  H    5.908297   5.996326   3.249596   3.709464   2.403888
    32  H    4.920372   7.677770   5.159289   2.797590   2.685816
    33  H    4.877225   7.599334   5.096711   2.762684   2.652275
    34  H    3.857167   4.426123   1.623537   1.961321   1.052376
    35  H    7.307818   9.426448   6.654001   4.947262   4.262918
    36  H    7.279852   9.338921   6.578163   4.921243   4.221915
    37  H    8.987104  12.017141   9.402167   7.061956   6.856322
    38  H    7.988497   8.351666   5.644175   5.602598   4.350772
                   11         12         13         14         15
    11  C    0.000000
    12  C    1.508844   0.000000
    13  C    2.618391   1.528895   0.000000
    14  C    3.921561   2.515631   1.516125   0.000000
    15  O    4.972417   3.702462   2.362397   1.340115   0.000000
    16  C    5.316443   5.148929   6.546611   6.729516   8.058528
    17  C    1.353627   2.622477   3.187696   4.673797   5.482504
    18  C    2.603051   3.376861   3.241413   4.730761   5.189600
    19  O    4.332686   2.824452   2.440827   1.219452   2.245573
    20  H    5.119929   4.821315   6.156894   6.275915   7.588895
    21  H    7.118976   7.397212   8.894720   9.300896  10.640124
    22  H    7.386498   8.093440   9.618410  10.338493  11.656736
    23  H    7.581991   8.634929  10.091623  11.078012  12.326947
    24  H    6.503138   7.701249   9.084613  10.201114  11.391488
    25  H    6.475344   7.661163   9.030884  10.133518  11.314905
    26  H    2.766283   2.572351   4.043702   4.533291   5.866176
    27  H    6.407852   6.206979   7.571052   7.651100   8.963023
    28  H    5.064273   4.727934   6.046860   6.130421   7.439066
    29  H    3.281737   4.102633   3.930545   5.370111   5.739246
    30  H    2.866952   3.125928   2.523911   3.916445   4.206648
    31  H    2.066577   3.528676   4.261482   5.729688   6.570257
    32  H    2.121622   1.097190   2.144541   2.725555   3.969902
    33  H    2.115797   1.097462   2.139645   2.693727   3.939272
    34  H    2.138888   3.427044   4.738491   5.939298   7.070500
    35  H    2.949438   2.193001   1.094862   2.110780   2.578499
    36  H    2.918102   2.192367   1.094870   2.113174   2.571000
    37  H    5.770920   4.404322   3.211956   1.892710   0.973740
    38  H    3.300992   4.147169   4.013718   5.467586   5.856924
                   16         17         18         19         20
    16  C    0.000000
    17  C    6.541320   0.000000
    18  C    7.916883   1.494875   0.000000
    19  O    6.007135   5.332528   5.657521   0.000000
    20  H    1.094317   6.372156   7.685146   5.535516   0.000000
    21  H    2.738019   8.097169   9.580718   8.679855   3.483853
    22  H    4.527889   8.041640   9.521769   9.949345   5.190283
    23  H    6.279700   7.862782   9.237389  10.926219   6.841403
    24  H    6.312811   6.602779   7.905626  10.197447   6.648505
    25  H    6.315906   6.583227   7.884629  10.129675   6.882074
    26  H    2.617627   4.068372   5.361642   4.150054   2.455834
    27  H    1.091919   7.627006   9.008087   6.838268   1.770180
    28  H    1.093746   6.335542   7.645299   5.371637   1.758193
    29  H    8.508607   2.128307   1.097568   6.318748   8.393366
    30  H    8.076072   2.192346   1.086132   4.958509   7.769905
    31  H    6.678952   1.090277   2.166445   6.317730   6.600226
    32  H    4.685805   3.290084   4.109815   2.734706   4.156706
    33  H    4.671073   3.298385   4.137256   2.692921   4.515240
    34  H    4.778263   2.491460   3.968749   6.127841   4.835842
    35  H    7.175534   3.222212   2.986254   3.110209   6.674614
    36  H    7.178350   3.185178   2.968104   3.119335   6.920122
    37  H    8.315875   6.383081   6.154498   2.311807   7.825475
    38  H    8.504734   2.125964   1.096983   6.405187   8.199799
                   21         22         23         24         25
    21  H    0.000000
    22  H    2.309191   0.000000
    23  H    4.521584   2.278857   0.000000
    24  H    5.208022   3.356728   1.784041   0.000000
    25  H    5.218517   3.369209   1.784365   1.751461   0.000000
    26  H    4.857208   5.829634   6.825935   6.250227   6.234146
    27  H    2.354367   4.510660   6.519564   6.797107   6.797751
    28  H    3.518514   5.219979   6.861408   6.890830   6.669786
    29  H   10.055912   9.867867   9.437413   8.160294   7.948344
    30  H    9.985536  10.150990  10.054610   8.774514   8.754254
    31  H    7.880765   7.526321   7.088973   5.752816   5.745076
    32  H    7.034498   7.895558   8.607976   7.677429   7.835468
    33  H    6.983810   7.824528   8.524865   7.797616   7.560757
    34  H    5.794542   5.553223   5.479688   4.388730   4.370703
    35  H    9.463308  10.091368  10.451066   9.296556   9.408503
    36  H    9.428439  10.025986  10.360991   9.370328   9.152435
    37  H   10.973060  12.147105  12.956567  12.092981  12.010596
    38  H   10.054214   9.867921   9.440573   7.969653   8.138707
                   26         27         28         29         30
    26  H    0.000000
    27  H    3.700809   0.000000
    28  H    2.384507   1.771033   0.000000
    29  H    6.000166   9.590117   8.170053   0.000000
    30  H    5.462563   9.162735   7.724889   1.769217   0.000000
    31  H    4.426790   7.734876   6.582481   2.502455   3.103174
    32  H    2.276250   5.713479   4.412656   4.968842   3.859622
    33  H    2.268228   5.689228   4.059106   4.671132   3.917024
    34  H    2.951752   5.788622   4.812209   4.391713   4.641372
    35  H    4.659148   8.209827   6.801906   3.836406   2.158059
    36  H    4.660911   8.207920   6.592421   3.379934   2.204893
    37  H    6.324386   9.147661   7.661776   6.700221   5.179247
    38  H    6.005561   9.590503   8.348456   1.752221   1.768222
                   31         32         33         34         35
    31  H    0.000000
    32  H    4.092527   0.000000
    33  H    4.090302   1.742396   0.000000
    34  H    2.086919   3.687265   3.642459   0.000000
    35  H    4.286229   2.520098   3.072024   5.042830   0.000000
    36  H    4.238715   3.076359   2.536023   4.982696   1.756783
    37  H    7.465046   4.544759   4.507551   7.821851   3.471295
    38  H    2.471350   4.691237   5.023287   4.391625   3.504958
                   36         37         38
    36  H    0.000000
    37  H    3.467212   0.000000
    38  H    3.889290   6.819301   0.000000
 Stoichiometry    C14H19N2O3(1+)
 Framework group  C1[X(C14H19N2O3)]
 Deg. of freedom   108
 Full point group                 C1
 Largest Abelian subgroup         C1      NOp   1
 Largest concise Abelian subgroup C1      NOp   1
                         Standard orientation:                         
 ---------------------------------------------------------------------
 Center     Atomic     Atomic              Coordinates (Angstroms)
 Number     Number      Type              X           Y           Z
 ---------------------------------------------------------------------
    1          6             0       -3.898348   -1.871422    0.009756
    2          7             0       -4.632819   -0.716297   -0.044024
    3          6             0       -4.136094    0.520696   -0.061046
    4          6             0       -2.694688    0.678223   -0.019947
    5          6             0       -1.895525   -0.532271    0.031016
    6          6             0       -2.521802   -1.813651    0.049052
    7          6             0       -5.035376    1.705839   -0.119038
    8          8             0       -2.207819    1.846763   -0.031791
    9          6             0       -0.461399   -0.416092    0.058343
   10          7             0        0.104865    0.771212    0.044993
   11          6             0        1.482998    1.121745    0.053207
   12          6             0        2.413454   -0.065977    0.039964
   13          6             0        3.922841    0.173219   -0.005371
   14          6             0        4.688764   -1.133863   -0.064842
   15          8             0        6.011380   -0.924952   -0.119165
   16          6             0       -1.743678   -3.103107    0.114493
   17          6             0        1.700794    2.457667    0.066805
   18          6             0        2.957897    3.266443    0.081814
   19          8             0        4.200020   -2.251088   -0.064930
   20          1             0       -1.149250   -3.159347    1.031565
   21          1             0       -4.462460   -2.793630    0.018586
   22          1             0       -5.644720   -0.812166   -0.073210
   23          1             0       -6.090185    1.421189   -0.156139
   24          1             0       -4.865319    2.346623    0.752749
   25          1             0       -4.794335    2.314346   -0.996975
   26          1             0        0.161478   -1.308181    0.090133
   27          1             0       -2.419159   -3.960780    0.094242
   28          1             0       -1.046679   -3.196207   -0.723246
   29          1             0        2.990757    3.906005   -0.809554
   30          1             0        3.879694    2.693492    0.123041
   31          1             0        0.800225    3.072224    0.067177
   32          1             0        2.187213   -0.682760    0.918723
   33          1             0        2.142794   -0.687495   -0.823100
   34          1             0       -0.614540    1.538833    0.018375
   35          1             0        4.285601    0.712169    0.875913
   36          1             0        4.224379    0.760009   -0.879151
   37          1             0        6.462934   -1.786897   -0.155482
   38          1             0        2.939573    3.947698    0.941423
 ---------------------------------------------------------------------
 Rotational constants (GHZ):      0.6597840      0.1611011      0.1300821
 Standard basis: 6-31+G(d,p) (6D, 7F)
 There are   456 symmetry adapted basis functions of A   symmetry.
 Integral buffers will be    131072 words long.
 Raffenetti 2 integral format.
 Two-electron integral symmetry is turned on.
   456 basis functions,   741 primitive gaussians,   456 cartesian basis functions
    70 alpha electrons       70 beta electrons
       nuclear repulsion energy      1382.8809951077 Hartrees.
 NAtoms=   38 NActive=   38 NUniq=   38 SFac= 7.50D-01 NAtFMM=   80 NAOKFM=F Big=F
 One-electron integrals computed using PRISM.
 NBasis=   456 RedAO= T  NBF=   456
 NBsUse=   453 1.00D-06 NBFU=   453
 Harris functional with IExCor=  402 diagonalized for initial guess.
 ExpMin= 4.38D-02 ExpMax= 5.48D+03 ExpMxC= 8.25D+02 IAcc=2 IRadAn=         4 AccDes= 0.00D+00
 HarFok:  IExCor= 402 AccDes= 0.00D+00 IRadAn=         4 IDoV=1
 ScaDFX=  1.000000  1.000000  1.000000  1.000000
 Initial guess orbital symmetries:
       Occupied  (A) (A) (A) (A) (A) (A) (A) (A) (A) (A) (A) (A)
                 (A) (A) (A) (A) (A) (A) (A) (A) (A) (A) (A) (A)
                 (A) (A) (A) (A) (A) (A) (A) (A) (A) (A) (A) (A)
                 (A) (A) (A) (A) (A) (A) (A) (A) (A) (A) (A) (A)
                 (A) (A) (A) (A) (A) (A) (A) (A) (A) (A) (A) (A)
                 (A) (A) (A) (A) (A) (A) (A) (A) (A) (A)
       Virtual   (A) (A) (A) (A) (A) (A) (A) (A) (A) (A) (A) (A)
                 (A) (A) (A) (A) (A) (A) (A) (A) (A) (A) (A) (A)
                 (A) (A) (A) (A) (A) (A) (A) (A) (A) (A) (A) (A)
                 (A) (A) (A) (A) (A) (A) (A) (A) (A) (A) (A) (A)
                 (A) (A) (A) (A) (A) (A) (A) (A) (A) (A) (A) (A)
                 (A) (A) (A) (A) (A) (A) (A) (A) (A) (A) (A) (A)
                 (A) (A) (A) (A) (A) (A) (A) (A) (A) (A) (A) (A)
                 (A) (A) (A) (A) (A) (A) (A) (A) (A) (A) (A) (A)
                 (A) (A) (A) (A) (A) (A) (A) (A) (A) (A) (A) (A)
                 (A) (A) (A) (A) (A) (A) (A) (A) (A) (A) (A) (A)
                 (A) (A) (A) (A) (A) (A) (A) (A) (A) (A) (A) (A)
                 (A) (A) (A) (A) (A) (A) (A) (A) (A) (A) (A) (A)
                 (A) (A) (A) (A) (A) (A) (A) (A) (A) (A) (A) (A)
                 (A) (A) (A) (A) (A) (A) (A) (A) (A) (A) (A) (A)
                 (A) (A) (A) (A) (A) (A) (A) (A) (A) (A) (A) (A)
                 (A) (A) (A) (A) (A) (A) (A) (A) (A) (A) (A) (A)
                 (A) (A) (A) (A) (A) (A) (A) (A) (A) (A) (A) (A)
                 (A) (A) (A) (A) (A) (A) (A) (A) (A) (A) (A) (A)
                 (A) (A) (A) (A) (A) (A) (A) (A) (A) (A) (A) (A)
                 (A) (A) (A) (A) (A) (A) (A) (A) (A) (A) (A) (A)
                 (A) (A) (A) (A) (A) (A) (A) (A) (A) (A) (A) (A)
                 (A) (A) (A) (A) (A) (A) (A) (A) (A) (A) (A) (A)
                 (A) (A) (A) (A) (A) (A) (A) (A) (A) (A) (A) (A)
                 (A) (A) (A) (A) (A) (A) (A) (A) (A) (A) (A) (A)
                 (A) (A) (A) (A) (A) (A) (A) (A) (A) (A) (A) (A)
                 (A) (A) (A) (A) (A) (A) (A) (A) (A) (A) (A) (A)
                 (A) (A) (A) (A) (A) (A) (A) (A) (A) (A) (A) (A)
                 (A) (A) (A) (A) (A) (A) (A) (A) (A) (A) (A) (A)
                 (A) (A) (A) (A) (A) (A) (A) (A) (A) (A) (A) (A)
                 (A) (A) (A) (A) (A) (A) (A) (A) (A) (A) (A) (A)
                 (A) (A) (A) (A) (A) (A) (A) (A) (A) (A) (A) (A)
                 (A) (A) (A) (A) (A) (A) (A) (A) (A) (A) (A)
 The electronic state of the initial guess is 1-A.
 Requested convergence on RMS density matrix=1.00D-08 within 128 cycles.
 Requested convergence on MAX density matrix=1.00D-06.
 Requested convergence on             energy=1.00D-06.
 No special actions if energy rises.
 SCF Done:  E(RB+HF-LYP) =  -879.967513303     A.U. after   16 cycles
             Convg  =    0.6783D-08             -V/T =  2.0095
             S**2   =   0.0000

 **********************************************************************

            Population analysis using the SCF density.

 **********************************************************************

 Orbital symmetries:
       Occupied  (A) (A) (A) (A) (A) (A) (A) (A) (A) (A) (A) (A)
                 (A) (A) (A) (A) (A) (A) (A) (A) (A) (A) (A) (A)
                 (A) (A) (A) (A) (A) (A) (A) (A) (A) (A) (A) (A)
                 (A) (A) (A) (A) (A) (A) (A) (A) (A) (A) (A) (A)
                 (A) (A) (A) (A) (A) (A) (A) (A) (A) (A) (A) (A)
                 (A) (A) (A) (A) (A) (A) (A) (A) (A) (A)
       Virtual   (A) (A) (A) (A) (A) (A) (A) (A) (A) (A) (A) (A)
                 (A) (A) (A) (A) (A) (A) (A) (A) (A) (A) (A) (A)
                 (A) (A) (A) (A) (A) (A) (A) (A) (A) (A) (A) (A)
                 (A) (A) (A) (A) (A) (A) (A) (A) (A) (A) (A) (A)
                 (A) (A) (A) (A) (A) (A) (A) (A) (A) (A) (A) (A)
                 (A) (A) (A) (A) (A) (A) (A) (A) (A) (A) (A) (A)
                 (A) (A) (A) (A) (A) (A) (A) (A) (A) (A) (A) (A)
                 (A) (A) (A) (A) (A) (A) (A) (A) (A) (A) (A) (A)
                 (A) (A) (A) (A) (A) (A) (A) (A) (A) (A) (A) (A)
                 (A) (A) (A) (A) (A) (A) (A) (A) (A) (A) (A) (A)
                 (A) (A) (A) (A) (A) (A) (A) (A) (A) (A) (A) (A)
                 (A) (A) (A) (A) (A) (A) (A) (A) (A) (A) (A) (A)
                 (A) (A) (A) (A) (A) (A) (A) (A) (A) (A) (A) (A)
                 (A) (A) (A) (A) (A) (A) (A) (A) (A) (A) (A) (A)
                 (A) (A) (A) (A) (A) (A) (A) (A) (A) (A) (A) (A)
                 (A) (A) (A) (A) (A) (A) (A) (A) (A) (A) (A) (A)
                 (A) (A) (A) (A) (A) (A) (A) (A) (A) (A) (A) (A)
                 (A) (A) (A) (A) (A) (A) (A) (A) (A) (A) (A) (A)
                 (A) (A) (A) (A) (A) (A) (A) (A) (A) (A) (A) (A)
                 (A) (A) (A) (A) (A) (A) (A) (A) (A) (A) (A) (A)
                 (A) (A) (A) (A) (A) (A) (A) (A) (A) (A) (A) (A)
                 (A) (A) (A) (A) (A) (A) (A) (A) (A) (A) (A) (A)
                 (A) (A) (A) (A) (A) (A) (A) (A) (A) (A) (A) (A)
                 (A) (A) (A) (A) (A) (A) (A) (A) (A) (A) (A) (A)
                 (A) (A) (A) (A) (A) (A) (A) (A) (A) (A) (A) (A)
                 (A) (A) (A) (A) (A) (A) (A) (A) (A) (A) (A) (A)
                 (A) (A) (A) (A) (A) (A) (A) (A) (A) (A) (A) (A)
                 (A) (A) (A) (A) (A) (A) (A) (A) (A) (A) (A) (A)
                 (A) (A) (A) (A) (A) (A) (A) (A) (A) (A) (A) (A)
                 (A) (A) (A) (A) (A) (A) (A) (A) (A) (A) (A) (A)
                 (A) (A) (A) (A) (A) (A) (A) (A) (A) (A) (A) (A)
                 (A) (A) (A) (A) (A) (A) (A) (A) (A) (A) (A)
 The electronic state is 1-A.
 Alpha  occ. eigenvalues --  -19.30279 -19.26107 -19.24843 -14.58330 -14.54563
 Alpha  occ. eigenvalues --  -10.42948 -10.40783 -10.40755 -10.40603 -10.38054
 Alpha  occ. eigenvalues --  -10.37627 -10.36827 -10.35862 -10.34019 -10.32928
 Alpha  occ. eigenvalues --  -10.32753 -10.32280 -10.32196 -10.30379  -1.21274
 Alpha  occ. eigenvalues --   -1.17057  -1.15092  -1.12121  -1.11939  -0.98732
 Alpha  occ. eigenvalues --   -0.95289  -0.93491  -0.90541  -0.88113  -0.85792
 Alpha  occ. eigenvalues --   -0.83628  -0.82341  -0.80174  -0.75603  -0.75190
 Alpha  occ. eigenvalues --   -0.72980  -0.69856  -0.69723  -0.66660  -0.65872
 Alpha  occ. eigenvalues --   -0.64401  -0.60900  -0.60443  -0.59617  -0.59098
 Alpha  occ. eigenvalues --   -0.58178  -0.57816  -0.56840  -0.56471  -0.55818
 Alpha  occ. eigenvalues --   -0.55610  -0.54006  -0.53292  -0.53088  -0.52934
 Alpha  occ. eigenvalues --   -0.52838  -0.52591  -0.52314  -0.51085  -0.50476
 Alpha  occ. eigenvalues --   -0.50427  -0.49714  -0.47775  -0.46957  -0.43527
 Alpha  occ. eigenvalues --   -0.42334  -0.39458  -0.38553  -0.38322  -0.35110
 Alpha virt. eigenvalues --   -0.23865  -0.15685  -0.14438  -0.12719  -0.10677
 Alpha virt. eigenvalues --   -0.10502  -0.09460  -0.09226  -0.08799  -0.07654
 Alpha virt. eigenvalues --   -0.07122  -0.06965  -0.06736  -0.05916  -0.05742
 Alpha virt. eigenvalues --   -0.05361  -0.04042  -0.03950  -0.03624  -0.03328
 Alpha virt. eigenvalues --   -0.02833  -0.02683  -0.02355  -0.02177  -0.00909
 Alpha virt. eigenvalues --   -0.00660  -0.00575  -0.00409  -0.00016   0.00404
 Alpha virt. eigenvalues --    0.00752   0.00848   0.01208   0.01404   0.01668
 Alpha virt. eigenvalues --    0.02968   0.03295   0.03769   0.03944   0.04252
 Alpha virt. eigenvalues --    0.04668   0.05094   0.05579   0.05881   0.06277
 Alpha virt. eigenvalues --    0.06423   0.06810   0.07394   0.07753   0.08038
 Alpha virt. eigenvalues --    0.08225   0.08588   0.08739   0.09123   0.09601
 Alpha virt. eigenvalues --    0.09885   0.10019   0.10274   0.10739   0.11508
 Alpha virt. eigenvalues --    0.11587   0.11865   0.12271   0.12471   0.12724
 Alpha virt. eigenvalues --    0.12875   0.13241   0.13456   0.14170   0.14520
 Alpha virt. eigenvalues --    0.14715   0.14843   0.15016   0.15540   0.16287
 Alpha virt. eigenvalues --    0.16344   0.16651   0.17564   0.17735   0.18215
 Alpha virt. eigenvalues --    0.18534   0.18742   0.19334   0.20261   0.20491
 Alpha virt. eigenvalues --    0.20719   0.21189   0.21224   0.21419   0.21855
 Alpha virt. eigenvalues --    0.22362   0.23270   0.23428   0.24247   0.24392
 Alpha virt. eigenvalues --    0.25393   0.25565   0.26637   0.26745   0.27507
 Alpha virt. eigenvalues --    0.28059   0.28479   0.29055   0.29270   0.30328
 Alpha virt. eigenvalues --    0.32191   0.32618   0.32952   0.33510   0.34926
 Alpha virt. eigenvalues --    0.35874   0.36257   0.37882   0.39844   0.41947
 Alpha virt. eigenvalues --    0.42939   0.46718   0.50497   0.50816   0.52880
 Alpha virt. eigenvalues --    0.53298   0.54103   0.54749   0.56410   0.56456
 Alpha virt. eigenvalues --    0.56560   0.57032   0.59518   0.59814   0.60034
 Alpha virt. eigenvalues --    0.60963   0.61289   0.62058   0.62345   0.62774
 Alpha virt. eigenvalues --    0.63122   0.63575   0.64335   0.64476   0.65228
 Alpha virt. eigenvalues --    0.66616   0.66710   0.69592   0.70428   0.70577
 Alpha virt. eigenvalues --    0.71864   0.73961   0.74357   0.74892   0.76247
 Alpha virt. eigenvalues --    0.79699   0.80297   0.81047   0.83105   0.83340
 Alpha virt. eigenvalues --    0.83765   0.84245   0.84540   0.85644   0.86438
 Alpha virt. eigenvalues --    0.86913   0.87606   0.88679   0.88937   0.89915
 Alpha virt. eigenvalues --    0.91812   0.92654   0.95063   0.96410   0.97032
 Alpha virt. eigenvalues --    0.97525   0.99219   1.00801   1.01549   1.01884
 Alpha virt. eigenvalues --    1.02383   1.03697   1.05365   1.06694   1.06794
 Alpha virt. eigenvalues --    1.07224   1.07548   1.08761   1.09985   1.10661
 Alpha virt. eigenvalues --    1.11068   1.11482   1.12008   1.13381   1.14161
 Alpha virt. eigenvalues --    1.14891   1.15445   1.15990   1.16640   1.18744
 Alpha virt. eigenvalues --    1.19188   1.19831   1.21316   1.21783   1.22401
 Alpha virt. eigenvalues --    1.23811   1.24574   1.25474   1.27063   1.27338
 Alpha virt. eigenvalues --    1.28070   1.28629   1.28724   1.29326   1.30538
 Alpha virt. eigenvalues --    1.31472   1.34248   1.38336   1.39570   1.42119
 Alpha virt. eigenvalues --    1.45207   1.47473   1.48514   1.48761   1.50336
 Alpha virt. eigenvalues --    1.51162   1.54671   1.55986   1.56463   1.57358
 Alpha virt. eigenvalues --    1.57594   1.61341   1.61549   1.62359   1.62529
 Alpha virt. eigenvalues --    1.64996   1.65114   1.65757   1.66085   1.67167
 Alpha virt. eigenvalues --    1.68538   1.68764   1.71015   1.72756   1.74171
 Alpha virt. eigenvalues --    1.75054   1.76525   1.77522   1.79855   1.79861
 Alpha virt. eigenvalues --    1.81381   1.84043   1.85501   1.86730   1.87161
 Alpha virt. eigenvalues --    1.87863   1.88323   1.89671   1.90778   1.90873
 Alpha virt. eigenvalues --    1.91067   1.91548   1.93003   1.93121   1.96793
 Alpha virt. eigenvalues --    1.97664   1.98359   1.98661   1.99070   1.99620
 Alpha virt. eigenvalues --    2.00137   2.01146   2.01661   2.04224   2.04853
 Alpha virt. eigenvalues --    2.05222   2.05725   2.09126   2.09923   2.10942
 Alpha virt. eigenvalues --    2.11341   2.12286   2.13175   2.14479   2.16342
 Alpha virt. eigenvalues --    2.17833   2.21454   2.22185   2.22346   2.25638
 Alpha virt. eigenvalues --    2.26256   2.26796   2.27421   2.29649   2.30005
 Alpha virt. eigenvalues --    2.31367   2.32070   2.32501   2.35424   2.36757
 Alpha virt. eigenvalues --    2.37105   2.38004   2.38374   2.40832   2.42656
 Alpha virt. eigenvalues --    2.44269   2.44713   2.44976   2.45765   2.46998
 Alpha virt. eigenvalues --    2.47570   2.48533   2.49906   2.52202   2.52893
 Alpha virt. eigenvalues --    2.53758   2.56210   2.56752   2.57037   2.59039
 Alpha virt. eigenvalues --    2.59505   2.60685   2.61385   2.64003   2.67117
 Alpha virt. eigenvalues --    2.67693   2.70118   2.70347   2.72100   2.72544
 Alpha virt. eigenvalues --    2.74579   2.74663   2.76331   2.76907   2.77695
 Alpha virt. eigenvalues --    2.78226   2.79118   2.81409   2.89280   2.91860
 Alpha virt. eigenvalues --    2.93025   2.94003   2.97114   2.97811   3.04551
 Alpha virt. eigenvalues --    3.05675   3.07970   3.11828   3.12719   3.13629
 Alpha virt. eigenvalues --    3.15481   3.16959   3.19566   3.22141   3.23987
 Alpha virt. eigenvalues --    3.29718   3.29807   3.30471   3.31181   3.32773
 Alpha virt. eigenvalues --    3.35434   3.35797   3.38325   3.39924   3.41314
 Alpha virt. eigenvalues --    3.43109   3.48088   3.52143   3.60859   4.12191
 Alpha virt. eigenvalues --    4.14678   4.17311   4.21375   4.23084   4.24106
 Alpha virt. eigenvalues --    4.26703   4.28846   4.33279   4.36745   4.37844
 Alpha virt. eigenvalues --    4.40596   4.41555   4.47557   4.50488   4.52646
 Alpha virt. eigenvalues --    4.65011   4.71059   4.88889
          Condensed to atoms (all electrons):
              1          2          3          4          5          6
     1  C    6.607129   0.401527  -0.126406  -0.100736   0.127781  -0.454660
     2  N    0.401527   6.777377   0.185959   0.016094  -0.062843  -0.206500
     3  C   -0.126406   0.185959   8.748187  -0.589980  -0.612786  -0.383009
     4  C   -0.100736   0.016094  -0.589980   6.669109  -0.231359   0.370206
     5  C    0.127781  -0.062843  -0.612786  -0.231359   6.805477  -0.270223
     6  C   -0.454660  -0.206500  -0.383009   0.370206  -0.270223   7.890912
     7  C    0.095545  -0.137646  -0.586142  -0.195933  -0.319779  -0.056963
     8  O    0.008871   0.019594  -0.117136   0.344085  -0.109613  -0.059229
     9  C   -0.301195  -0.018512  -0.421542  -0.295937   0.809289  -0.091366
    10  N   -0.005436   0.001314  -0.005007  -0.123212   0.033484  -0.065934
    11  C    0.050909   0.000858  -0.062690   0.087792  -0.053912  -0.376877
    12  C   -0.149809  -0.000828  -0.026321  -0.309058   0.287464   0.365858
    13  C   -0.004009   0.000256   0.001012  -0.079431   0.110174   0.002424
    14  C   -0.000852   0.000003  -0.000459   0.002404  -0.006591  -0.005700
    15  O    0.000009   0.000000  -0.000005   0.000019  -0.000155   0.000141
    16  C   -0.168475  -0.004657  -0.123820  -0.185591  -0.427949  -0.267518
    17  C    0.072548   0.003284   0.133849   0.366648  -0.406049  -0.343433
    18  C    0.000771   0.000011  -0.003753  -0.021326   0.024998   0.013595
    19  O    0.000181   0.000000  -0.000011  -0.000054  -0.001157   0.002585
    20  H   -0.022184  -0.001211  -0.006439   0.001553  -0.003575  -0.083819
    21  H    0.308344  -0.059066   0.051933  -0.029220   0.027378  -0.000874
    22  H   -0.055826   0.312393  -0.012680   0.036553   0.030189   0.039662
    23  H    0.012357  -0.009114  -0.100237   0.038651   0.005243  -0.005296
    24  H   -0.005836  -0.000284  -0.092146   0.000463  -0.004510  -0.001853
    25  H   -0.004858   0.000025  -0.084193  -0.004952  -0.001741  -0.003523
    26  H    0.020463   0.000520  -0.005447  -0.016803  -0.003129  -0.021911
    27  H   -0.010407   0.000765   0.004237  -0.009210  -0.011698  -0.138063
    28  H   -0.021554  -0.001176  -0.006376   0.002044  -0.003115  -0.076760
    29  H   -0.000001   0.000000  -0.000039  -0.000573   0.000539   0.000023
    30  H    0.000001   0.000000   0.000001   0.000044   0.000096   0.000032
    31  H   -0.000103   0.000003   0.003513   0.018433  -0.011271  -0.000317
    32  H    0.000097   0.000002  -0.000323  -0.004831   0.008303   0.003257
    33  H   -0.000314   0.000001  -0.000337  -0.007918   0.013055   0.003715
    34  H   -0.002032  -0.000499   0.047602   0.052414  -0.069892  -0.011915
    35  H   -0.000002   0.000000   0.000001  -0.000171   0.000610   0.000046
    36  H    0.000003   0.000000   0.000000  -0.000074   0.000245   0.000047
    37  H    0.000000   0.000000   0.000000   0.000000  -0.000021  -0.000001
    38  H   -0.000001   0.000000  -0.000043  -0.000671   0.000672   0.000030
              7          8          9         10         11         12
     1  C    0.095545   0.008871  -0.301195  -0.005436   0.050909  -0.149809
     2  N   -0.137646   0.019594  -0.018512   0.001314   0.000858  -0.000828
     3  C   -0.586142  -0.117136  -0.421542  -0.005007  -0.062690  -0.026321
     4  C   -0.195933   0.344085  -0.295937  -0.123212   0.087792  -0.309058
     5  C   -0.319779  -0.109613   0.809289   0.033484  -0.053912   0.287464
     6  C   -0.056963  -0.059229  -0.091366  -0.065934  -0.376877   0.365858
     7  C    6.578565  -0.001752  -0.004319  -0.015389  -0.020472   0.022922
     8  O   -0.001752   8.511799  -0.055655   0.051612  -0.205992  -0.023245
     9  C   -0.004319  -0.055655   6.359143   0.288863   0.375307  -0.481955
    10  N   -0.015389   0.051612   0.288863   6.892027   0.112907   0.153181
    11  C   -0.020472  -0.205992   0.375307   0.112907  12.138061  -3.710666
    12  C    0.022922  -0.023245  -0.481955   0.153181  -3.710666  15.388311
    13  C    0.001149  -0.000630  -0.251082  -0.032038  -0.715680  -0.833351
    14  C   -0.000014  -0.000138  -0.064347   0.001862  -0.358827   0.174572
    15  O    0.000000   0.000000   0.003388   0.000247   0.004972   0.025397
    16  C   -0.017183   0.004025  -0.007878   0.016538  -0.176372   0.232417
    17  C   -0.023494   0.165407  -0.456412  -0.212437  -2.170338  -5.501425
    18  C    0.000175   0.011645   0.061264  -0.007270   0.367059  -0.166310
    19  O   -0.000001  -0.000003   0.012011  -0.001088   0.113016   0.024349
    20  H   -0.000845  -0.000023   0.036433   0.000288   0.010012  -0.008408
    21  H    0.013395   0.000120   0.004016   0.000071   0.000038   0.000088
    22  H   -0.073763  -0.000332   0.000347  -0.000053   0.000131  -0.000086
    23  H    0.403215   0.000699  -0.000527  -0.000010   0.000010  -0.000011
    24  H    0.455126   0.001440   0.002387  -0.000375   0.000296   0.000065
    25  H    0.451368   0.001485   0.001650  -0.000293   0.000189  -0.000006
    26  H   -0.000322  -0.000292   0.389839  -0.083431   0.065365  -0.112552
    27  H    0.000393   0.000044  -0.011351  -0.000417  -0.002667   0.002658
    28  H   -0.000812  -0.000032   0.039070   0.000304   0.012219  -0.011215
    29  H    0.000002   0.000012   0.000453   0.000150   0.039793   0.011697
    30  H    0.000000  -0.000004  -0.000168   0.000386   0.043539  -0.012895
    31  H    0.000293  -0.003506  -0.044248  -0.036479   0.067956   0.045746
    32  H   -0.000007   0.000077   0.001415  -0.008368  -0.109007   0.382622
    33  H    0.000016   0.000092   0.005549  -0.008369  -0.170098   0.484554
    34  H    0.003176   0.068500  -0.066024   0.238522  -0.058230   0.034271
    35  H    0.000000   0.000001  -0.000180  -0.000001  -0.028673  -0.049785
    36  H    0.000000   0.000001  -0.000955   0.000228  -0.013315  -0.101237
    37  H    0.000000   0.000000  -0.000014   0.000006   0.006023   0.006668
    38  H    0.000002   0.000018   0.000330   0.000268   0.054832   0.014946
             13         14         15         16         17         18
     1  C   -0.004009  -0.000852   0.000009  -0.168475   0.072548   0.000771
     2  N    0.000256   0.000003   0.000000  -0.004657   0.003284   0.000011
     3  C    0.001012  -0.000459  -0.000005  -0.123820   0.133849  -0.003753
     4  C   -0.079431   0.002404   0.000019  -0.185591   0.366648  -0.021326
     5  C    0.110174  -0.006591  -0.000155  -0.427949  -0.406049   0.024998
     6  C    0.002424  -0.005700   0.000141  -0.267518  -0.343433   0.013595
     7  C    0.001149  -0.000014   0.000000  -0.017183  -0.023494   0.000175
     8  O   -0.000630  -0.000138   0.000000   0.004025   0.165407   0.011645
     9  C   -0.251082  -0.064347   0.003388  -0.007878  -0.456412   0.061264
    10  N   -0.032038   0.001862   0.000247   0.016538  -0.212437  -0.007270
    11  C   -0.715680  -0.358827   0.004972  -0.176372  -2.170338   0.367059
    12  C   -0.833351   0.174572   0.025397   0.232417  -5.501425  -0.166310
    13  C    9.155798  -0.321462   0.022903   0.016339  -0.767392  -0.056401
    14  C   -0.321462   5.540914  -0.020812   0.003637   0.162870  -0.118298
    15  O    0.022903  -0.020812   8.324511  -0.000071  -0.014393   0.004844
    16  C    0.016339   0.003637  -0.000071   6.633449  -0.085931  -0.002610
    17  C   -0.767392   0.162870  -0.014393  -0.085931  16.326405  -1.042025
    18  C   -0.056401  -0.118298   0.004844  -0.002610  -1.042025   6.278170
    19  O   -0.202717   0.391645  -0.118229  -0.001639   0.003282   0.001227
    20  H   -0.000774   0.000042   0.000000   0.425468   0.000317  -0.000012
    21  H    0.000005   0.000000   0.000000   0.005771  -0.000009   0.000000
    22  H   -0.000002   0.000000   0.000000  -0.000994   0.000025   0.000000
    23  H    0.000000   0.000000   0.000000  -0.000451   0.000013   0.000001
    24  H    0.000002   0.000000   0.000000  -0.000271  -0.000344  -0.000012
    25  H    0.000001   0.000000   0.000000  -0.000338  -0.000158  -0.000013
    26  H    0.010981  -0.002104   0.000004   0.018040   0.044947   0.000363
    27  H    0.000106   0.000010   0.000000   0.532234  -0.000045   0.000001
    28  H   -0.001017   0.000000   0.000000   0.415081   0.000342  -0.000012
    29  H    0.004090  -0.000976  -0.000014   0.000002  -0.131969   0.429297
    30  H   -0.015007   0.000137   0.000106  -0.000008  -0.180314   0.517165
    31  H   -0.005974   0.000305   0.000001  -0.000212   0.244392   0.008311
    32  H    0.083035  -0.010872  -0.000423   0.000169  -0.035418   0.002922
    33  H    0.065474  -0.003241  -0.000193   0.002133  -0.075091   0.003792
    34  H   -0.001763   0.000327   0.000000  -0.001614   0.027336   0.006660
    35  H    0.416733   0.015962  -0.000276   0.000037  -0.021453  -0.011977
    36  H    0.430650   0.010895  -0.000255  -0.000003   0.008185  -0.012655
    37  H    0.006505   0.007881   0.207336  -0.000004   0.001658  -0.000261
    38  H    0.005674  -0.000824  -0.000010   0.000003  -0.148154   0.426538
             19         20         21         22         23         24
     1  C    0.000181  -0.022184   0.308344  -0.055826   0.012357  -0.005836
     2  N    0.000000  -0.001211  -0.059066   0.312393  -0.009114  -0.000284
     3  C   -0.000011  -0.006439   0.051933  -0.012680  -0.100237  -0.092146
     4  C   -0.000054   0.001553  -0.029220   0.036553   0.038651   0.000463
     5  C   -0.001157  -0.003575   0.027378   0.030189   0.005243  -0.004510
     6  C    0.002585  -0.083819  -0.000874   0.039662  -0.005296  -0.001853
     7  C   -0.000001  -0.000845   0.013395  -0.073763   0.403215   0.455126
     8  O   -0.000003  -0.000023   0.000120  -0.000332   0.000699   0.001440
     9  C    0.012011   0.036433   0.004016   0.000347  -0.000527   0.002387
    10  N   -0.001088   0.000288   0.000071  -0.000053  -0.000010  -0.000375
    11  C    0.113016   0.010012   0.000038   0.000131   0.000010   0.000296
    12  C    0.024349  -0.008408   0.000088  -0.000086  -0.000011   0.000065
    13  C   -0.202717  -0.000774   0.000005  -0.000002   0.000000   0.000002
    14  C    0.391645   0.000042   0.000000   0.000000   0.000000   0.000000
    15  O   -0.118229   0.000000   0.000000   0.000000   0.000000   0.000000
    16  C   -0.001639   0.425468   0.005771  -0.000994  -0.000451  -0.000271
    17  C    0.003282   0.000317  -0.000009   0.000025   0.000013  -0.000344
    18  C    0.001227  -0.000012   0.000000   0.000000   0.000001  -0.000012
    19  O    8.234862   0.000002   0.000000   0.000000   0.000000   0.000000
    20  H    0.000002   0.516486   0.000146   0.000004   0.000000   0.000000
    21  H    0.000000   0.000146   0.505534  -0.004718   0.000006   0.000002
    22  H    0.000000   0.000004  -0.004718   0.385643   0.005964   0.000137
    23  H    0.000000   0.000000   0.000006   0.005964   0.542334  -0.023514
    24  H    0.000000   0.000000   0.000002   0.000137  -0.023514   0.476713
    25  H    0.000000   0.000000   0.000002   0.000127  -0.023450  -0.020256
    26  H    0.000232  -0.000345  -0.000006   0.000000   0.000000   0.000000
    27  H    0.000000  -0.021779   0.003319  -0.000005   0.000000   0.000000
    28  H    0.000007  -0.029775   0.000137   0.000003   0.000000   0.000000
    29  H    0.000003   0.000000   0.000000   0.000000   0.000000   0.000000
    30  H   -0.000072   0.000000   0.000000   0.000000   0.000000   0.000000
    31  H    0.000001   0.000000   0.000000   0.000000   0.000000   0.000000
    32  H    0.001152   0.000037   0.000000   0.000000   0.000000   0.000000
    33  H   -0.000094  -0.000005   0.000000   0.000000   0.000000   0.000000
    34  H    0.000005  -0.000004   0.000000   0.000001  -0.000001   0.000003
    35  H    0.002447   0.000000   0.000000   0.000000   0.000000   0.000000
    36  H    0.002841   0.000000   0.000000   0.000000   0.000000   0.000000
    37  H    0.006535   0.000000   0.000000   0.000000   0.000000   0.000000
    38  H    0.000003   0.000000   0.000000   0.000000   0.000000   0.000000
             25         26         27         28         29         30
     1  C   -0.004858   0.020463  -0.010407  -0.021554  -0.000001   0.000001
     2  N    0.000025   0.000520   0.000765  -0.001176   0.000000   0.000000
     3  C   -0.084193  -0.005447   0.004237  -0.006376  -0.000039   0.000001
     4  C   -0.004952  -0.016803  -0.009210   0.002044  -0.000573   0.000044
     5  C   -0.001741  -0.003129  -0.011698  -0.003115   0.000539   0.000096
     6  C   -0.003523  -0.021911  -0.138063  -0.076760   0.000023   0.000032
     7  C    0.451368  -0.000322   0.000393  -0.000812   0.000002   0.000000
     8  O    0.001485  -0.000292   0.000044  -0.000032   0.000012  -0.000004
     9  C    0.001650   0.389839  -0.011351   0.039070   0.000453  -0.000168
    10  N   -0.000293  -0.083431  -0.000417   0.000304   0.000150   0.000386
    11  C    0.000189   0.065365  -0.002667   0.012219   0.039793   0.043539
    12  C   -0.000006  -0.112552   0.002658  -0.011215   0.011697  -0.012895
    13  C    0.000001   0.010981   0.000106  -0.001017   0.004090  -0.015007
    14  C    0.000000  -0.002104   0.000010   0.000000  -0.000976   0.000137
    15  O    0.000000   0.000004   0.000000   0.000000  -0.000014   0.000106
    16  C   -0.000338   0.018040   0.532234   0.415081   0.000002  -0.000008
    17  C   -0.000158   0.044947  -0.000045   0.000342  -0.131969  -0.180314
    18  C   -0.000013   0.000363   0.000001  -0.000012   0.429297   0.517165
    19  O    0.000000   0.000232   0.000000   0.000007   0.000003  -0.000072
    20  H    0.000000  -0.000345  -0.021779  -0.029775   0.000000   0.000000
    21  H    0.000002  -0.000006   0.003319   0.000137   0.000000   0.000000
    22  H    0.000127   0.000000  -0.000005   0.000003   0.000000   0.000000
    23  H   -0.023450   0.000000   0.000000   0.000000   0.000000   0.000000
    24  H   -0.020256   0.000000   0.000000   0.000000   0.000000   0.000000
    25  H    0.476087   0.000000   0.000000   0.000000   0.000000   0.000000
    26  H    0.000000   0.518731   0.000043  -0.000059   0.000000  -0.000001
    27  H    0.000000   0.000043   0.508116  -0.021702   0.000000   0.000000
    28  H    0.000000  -0.000059  -0.021702   0.518862   0.000000   0.000000
    29  H    0.000000   0.000000   0.000000   0.000000   0.510708  -0.024972
    30  H    0.000000  -0.000001   0.000000   0.000000  -0.024972   0.532739
    31  H    0.000000  -0.000015   0.000000   0.000000  -0.002983   0.003966
    32  H    0.000000   0.000570   0.000000  -0.000006  -0.000012  -0.000019
    33  H    0.000000   0.000546   0.000000   0.000051   0.000035  -0.000013
    34  H    0.000002   0.002308   0.000000  -0.000004  -0.000016   0.000010
    35  H    0.000000   0.000000   0.000000   0.000000   0.000123   0.000855
    36  H    0.000000   0.000000   0.000000   0.000000  -0.000007  -0.000039
    37  H    0.000000   0.000000   0.000000   0.000000   0.000000   0.000001
    38  H    0.000000   0.000000   0.000000   0.000000  -0.025951  -0.025155
             31         32         33         34         35         36
     1  C   -0.000103   0.000097  -0.000314  -0.002032  -0.000002   0.000003
     2  N    0.000003   0.000002   0.000001  -0.000499   0.000000   0.000000
     3  C    0.003513  -0.000323  -0.000337   0.047602   0.000001   0.000000
     4  C    0.018433  -0.004831  -0.007918   0.052414  -0.000171  -0.000074
     5  C   -0.011271   0.008303   0.013055  -0.069892   0.000610   0.000245
     6  C   -0.000317   0.003257   0.003715  -0.011915   0.000046   0.000047
     7  C    0.000293  -0.000007   0.000016   0.003176   0.000000   0.000000
     8  O   -0.003506   0.000077   0.000092   0.068500   0.000001   0.000001
     9  C   -0.044248   0.001415   0.005549  -0.066024  -0.000180  -0.000955
    10  N   -0.036479  -0.008368  -0.008369   0.238522  -0.000001   0.000228
    11  C    0.067956  -0.109007  -0.170098  -0.058230  -0.028673  -0.013315
    12  C    0.045746   0.382622   0.484554   0.034271  -0.049785  -0.101237
    13  C   -0.005974   0.083035   0.065474  -0.001763   0.416733   0.430650
    14  C    0.000305  -0.010872  -0.003241   0.000327   0.015962   0.010895
    15  O    0.000001  -0.000423  -0.000193   0.000000  -0.000276  -0.000255
    16  C   -0.000212   0.000169   0.002133  -0.001614   0.000037  -0.000003
    17  C    0.244392  -0.035418  -0.075091   0.027336  -0.021453   0.008185
    18  C    0.008311   0.002922   0.003792   0.006660  -0.011977  -0.012655
    19  O    0.000001   0.001152  -0.000094   0.000005   0.002447   0.002841
    20  H    0.000000   0.000037  -0.000005  -0.000004   0.000000   0.000000
    21  H    0.000000   0.000000   0.000000   0.000000   0.000000   0.000000
    22  H    0.000000   0.000000   0.000000   0.000001   0.000000   0.000000
    23  H    0.000000   0.000000   0.000000  -0.000001   0.000000   0.000000
    24  H    0.000000   0.000000   0.000000   0.000003   0.000000   0.000000
    25  H    0.000000   0.000000   0.000000   0.000002   0.000000   0.000000
    26  H   -0.000015   0.000570   0.000546   0.002308   0.000000   0.000000
    27  H    0.000000   0.000000   0.000000   0.000000   0.000000   0.000000
    28  H    0.000000  -0.000006   0.000051  -0.000004   0.000000   0.000000
    29  H   -0.002983  -0.000012   0.000035  -0.000016   0.000123  -0.000007
    30  H    0.003966  -0.000019  -0.000013   0.000010   0.000855  -0.000039
    31  H    0.553563  -0.000146  -0.000144   0.011147  -0.000009  -0.000013
    32  H   -0.000146   0.541574  -0.038143  -0.000198  -0.004915   0.003925
    33  H   -0.000144  -0.038143   0.543729  -0.000213   0.003994  -0.004468
    34  H    0.011147  -0.000198  -0.000213   0.325191   0.000000   0.000000
    35  H   -0.000009  -0.004915   0.003994   0.000000   0.507325  -0.026624
    36  H   -0.000013   0.003925  -0.004468   0.000000  -0.026624   0.505869
    37  H    0.000000   0.000001  -0.000001   0.000000  -0.000168  -0.000162
    38  H   -0.003805   0.000032  -0.000009  -0.000017   0.000028   0.000127
             37         38
     1  C    0.000000  -0.000001
     2  N    0.000000   0.000000
     3  C    0.000000  -0.000043
     4  C    0.000000  -0.000671
     5  C   -0.000021   0.000672
     6  C   -0.000001   0.000030
     7  C    0.000000   0.000002
     8  O    0.000000   0.000018
     9  C   -0.000014   0.000330
    10  N    0.000006   0.000268
    11  C    0.006023   0.054832
    12  C    0.006668   0.014946
    13  C    0.006505   0.005674
    14  C    0.007881  -0.000824
    15  O    0.207336  -0.000010
    16  C   -0.000004   0.000003
    17  C    0.001658  -0.148154
    18  C   -0.000261   0.426538
    19  O    0.006535   0.000003
    20  H    0.000000   0.000000
    21  H    0.000000   0.000000
    22  H    0.000000   0.000000
    23  H    0.000000   0.000000
    24  H    0.000000   0.000000
    25  H    0.000000   0.000000
    26  H    0.000000   0.000000
    27  H    0.000000   0.000000
    28  H    0.000000   0.000000
    29  H    0.000000  -0.025951
    30  H    0.000001  -0.025155
    31  H    0.000000  -0.003805
    32  H    0.000001   0.000032
    33  H   -0.000001  -0.000009
    34  H    0.000000  -0.000017
    35  H   -0.000168   0.000028
    36  H   -0.000162   0.000127
    37  H    0.369348   0.000000
    38  H    0.000000   0.511815
 Mulliken atomic charges:
              1
     1  C   -0.271837
     2  N   -0.217652
     3  C    0.191031
     4  C    0.200529
     5  C    0.326369
     6  C    0.233210
     7  C   -0.570507
     8  O   -0.611945
     9  C    0.182917
    10  N   -0.186652
    11  C    0.682534
    12  C   -0.158623
    13  C   -1.044580
    14  C    0.602050
    15  O   -0.439043
    16  C   -0.831755
    17  C    0.054779
    18  C   -0.715874
    19  O   -0.471323
    20  H    0.188410
    21  H    0.173591
    22  H    0.337280
    23  H    0.154118
    24  H    0.212769
    25  H    0.212844
    26  H    0.173463
    27  H    0.175418
    28  H    0.185494
    29  H    0.190584
    30  H    0.159586
    31  H    0.151595
    32  H    0.183497
    33  H    0.181917
    34  H    0.394946
    35  H    0.196075
    36  H    0.196790
    37  H    0.388670
    38  H    0.189324
 Sum of Mulliken charges=   1.00000
 Atomic charges with hydrogens summed into heavy atoms:
              1
     1  C   -0.098246
     2  N    0.119628
     3  C    0.191031
     4  C    0.200529
     5  C    0.326369
     6  C    0.233210
     7  C    0.009225
     8  O   -0.611945
     9  C    0.356380
    10  N    0.208294
    11  C    0.682534
    12  C    0.206790
    13  C   -0.651715
    14  C    0.602050
    15  O   -0.050373
    16  C   -0.282433
    17  C    0.206374
    18  C   -0.176380
    19  O   -0.471323
    20  H    0.000000
    21  H    0.000000
    22  H    0.000000
    23  H    0.000000
    24  H    0.000000
    25  H    0.000000
    26  H    0.000000
    27  H    0.000000
    28  H    0.000000
    29  H    0.000000
    30  H    0.000000
    31  H    0.000000
    32  H    0.000000
    33  H    0.000000
    34  H    0.000000
    35  H    0.000000
    36  H    0.000000
    37  H    0.000000
[...]
 13309,0.00502724,-0.00025900,0.00005073,-0.00162208,0.00014261,0.00000
 493,-0.00009102,0.00005728,0.00021712,0.00006899,-0.00005866,-0.000000
 22,-0.00004287,0.00022041,0.00000555,-0.00000809,0.00016668,-0.0000021
 5,0.00011949,-0.00028670,-0.00019120,0.00023442,-0.00029174,0.00016806
 ,0.00024644,-0.00538725,-0.00005346,-0.00307901,-0.00011031,-0.0000078
 4,0.00020330,0.00006044,-0.00022055,0.00005290,-0.00013155,-0.00002664
 ,0.00020437,0.00042609,0.00000426,-0.00000268,-0.00166520,0.00004596,-
 0.00234687,0.00007018,0.00018640,-0.00019298,0.00007089,-0.00017192,-0
 .00019113,0.07501013,-0.00008565,0.00053655,0.00025272,-0.00013591,-0.
 00002628,-0.00030994,0.00048382,0.00237322,0.00007009,-0.00113906,0.00
 079489,-0.00087159,-0.00030048,-0.00500914,0.00026558,0.00015904,-0.00
 082301,0.00004849,0.00002713,-0.00022289,0.00002222,0.00145473,-0.0108
 3514,0.00004500,0.00094889,0.00471045,0.00031018,-0.00135445,-0.039517
 37,0.00876335,-0.00041594,-0.00113202,0.00001672,0.00003917,0.00270518
 ,0.00002633,-0.00001698,0.00057020,-0.00000271,-0.00000389,0.00005946,
 0.00002123,0.00001175,-0.00003775,-0.00001734,0.00001881,-0.00031864,-
 0.00001848,0.00013250,-0.00148184,-0.00002891,-0.00001076,-0.00012750,
 -0.00000948,0.00000500,-0.00002697,-0.00001087,-0.00009034,0.00006252,
 -0.00008727,-0.00000670,0.00008064,0.00000207,0.00001918,-0.00025979,-
 0.00000889,0.00000627,-0.00000294,0.00000642,-0.00006536,0.00003373,0.
 00004959,0.00003135,0.00005197,-0.00002396,-0.00015426,0.00821949,0.00
 014662,-0.00000392,0.00002122,0.00000603,0.00009128,0.00004647,0.00009
 078,-0.00008610,0.00000150,-0.00001656,0.00000106,0.00002820,-0.000000
 08,-0.00001574,0.00094740,-0.00000530,-0.00012621,-0.00004482,0.000585
 32,0.00013244,-0.00001843,-0.00056783,0.00035251,0.03864021,0.00210310
 ,0.00022947,-0.00593234,0.00347260,-0.00021381,0.00788068,-0.01310028,
 -0.00006738,-0.00008664,0.02494677,-0.00044584,0.02352593,0.00876049,0
 .00027368,-0.01059603,-0.00385515,-0.00000311,-0.00205208,-0.00057872,
 0.00001032,-0.00077631,-0.03384064,-0.00027974,-0.01384826,-0.02474614
 ,0.00045536,-0.01824825,0.03065406,0.00881471,-0.30546376,0.01165179,-
 0.00009536,0.00583758,-0.00338934,-0.00000696,0.00180373,0.00044586,-0
 .00000504,0.00088875,-0.00004640,0.00002003,-0.00058176,-0.00031253,-0
 .00002068,0.00049675,-0.00042324,-0.00002025,0.00017442,-0.00330163,-0
 .00012080,0.00117310,0.00029073,0.00001182,-0.00039321,-0.00009483,-0.
 00001122,0.00028338,-0.00001738,-0.00011682,0.00001450,0.00015962,0.00
 000440,-0.00000024,-0.00043548,-0.00001361,0.00001638,-0.00013707,0.00
 000380,-0.00016179,0.00041453,0.00018524,-0.00026981,0.00042142,-0.000
 15497,-0.00028285,0.00008181,0.00018255,0.00253769,0.00007732,0.000004
 66,-0.00009749,-0.00001439,0.00011837,0.00002785,-0.00013456,-0.000056
 32,-0.00004322,0.00010431,0.00000107,0.00002954,-0.00041084,0.00001598
 ,0.00029367,-0.00007394,-0.00014046,-0.00034808,-0.00006862,0.00016009
 ,-0.00037633,0.00167330,-0.00877140,0.31454197,-0.00002919,-0.00000230
 ,0.00001508,-0.00002054,-0.00000066,-0.00001190,0.00002484,0.00000053,
 -0.00000005,-0.00003472,0.00000552,-0.00000593,-0.00000665,-0.00000708
 ,0.00013640,0.00006051,-0.00000639,0.00000570,-0.00000353,0.00000104,0
 .00000329,-0.00003731,-0.00001079,0.00005104,0.00004919,-0.00002660,-0
 .00014486,-0.00028766,-0.00022899,0.00012616,0.00106062,0.00011461,-0.
 00096120,-0.01570182,0.02311300,-0.00676889,-0.12390582,0.11750503,-0.
 02992804,-0.00396940,0.00264710,-0.00454642,-0.00046586,-0.00007198,0.
 00211851,-0.00001077,0.00001943,-0.00001360,-0.00024336,0.00005087,0.0
 0056770,-0.00017529,-0.00045996,-0.00034931,0.00106711,-0.00022545,-0.
 00082228,0.00000633,0.00001221,0.00000391,-0.00000158,0.00000202,0.000
 00263,0.00000521,0.00000391,-0.00000369,-0.00000315,0.00000011,0.00000
 286,-0.00000017,0.00000177,0.00000084,-0.00000058,-0.00000108,-0.00000
 020,0.00015739,0.00010799,0.00009295,-0.00001143,-0.00000469,0.0000061
 9,0.00001671,-0.00001719,0.00000855,0.00007265,0.00002236,-0.00016306,
 0.00023460,-0.00028998,-0.00106736,0.00003145,0.00002057,0.00003867,0.
 00083684,-0.00002399,-0.00051462,-0.00484738,-0.00055192,0.00259691,0.
 00004506,-0.00002873,-0.00007899,0.13667159,-0.00001192,0.00000067,0.0
 0002043,-0.00004892,-0.00000036,-0.00003085,0.00006326,0.00000301,-0.0
 0001635,-0.00006998,-0.00000368,-0.00000210,-0.00005932,-0.00000613,0.
 00000485,0.00002215,-0.00000594,0.00003558,0.00000235,0.00000003,0.000
 00085,0.00005539,-0.00000066,-0.00001056,-0.00005087,-0.00000148,0.000
 04164,0.00000189,-0.00003100,-0.00035669,0.00012790,0.00016460,0.00008
 608,-0.00173732,0.00307411,-0.00185803,0.11663041,-0.22169010,0.050436
 39,0.00087042,0.00003773,-0.00033314,-0.00043947,0.00055721,-0.0000965
 3,0.00000066,0.00000322,0.00000218,0.00074085,-0.00009754,-0.00001807,
 0.00070836,0.00063431,-0.00025580,-0.00123860,-0.00063051,-0.00071954,
 -0.00000148,-0.00000200,-0.00000249,-0.00000124,0.00000026,0.00000096,
 0.00000474,0.00000023,-0.00000328,-0.00000153,-0.00000009,0.00000054,0
 .00000005,0.00000116,0.00000144,0.00000028,-0.00000106,0.00000096,-0.0
 0001531,0.00003454,0.00001233,-0.00000073,-0.00000097,-0.00000242,0.00
 000029,0.00000137,-0.00000061,-0.00018377,-0.00002330,0.00051520,-0.00
 071825,-0.00030945,-0.00015361,-0.00017481,-0.00001748,-0.00000502,0.0
 0017675,0.00073928,-0.00024889,-0.00096947,0.00130712,0.00011184,0.000
 02683,-0.00000482,0.00005059,-0.12757795,0.23667401,-0.00000966,-0.000
 00056,0.00003046,-0.00006536,0.00000024,-0.00003967,0.00008084,-0.0000
 0232,-0.00003096,-0.00006331,0.00000163,0.00000884,-0.00008556,0.00001
 397,-0.00006438,0.00001283,0.00000148,0.00003431,0.00000670,0.00000005
 ,0.00000161,0.00005394,0.00000532,0.00000219,-0.00001415,0.00001036,-0
 .00001399,0.00033581,0.00018740,-0.00012607,-0.00059233,-0.00051930,0.
 00103626,0.00872074,-0.01388201,0.00355572,-0.03146329,0.05339368,-0.0
 6064417,-0.02018558,0.03147793,-0.00569177,0.00150753,-0.00231169,-0.0
 0035505,0.00000436,-0.00000309,0.00001218,0.00057290,0.00000615,0.0000
 4364,-0.00042859,-0.00037222,-0.00081768,-0.00053144,-0.00409461,-0.00
 558017,0.00000010,-0.00000187,-0.00000575,-0.00000043,-0.00000016,-0.0
 0000025,0.00000611,0.,-0.00000460,-0.00000195,0.00000027,-0.00000029,-
 0.00000003,0.00000085,0.00000107,-0.00000052,-0.00000096,0.00000176,-0
 .00010544,-0.00007106,-0.00003933,0.00000265,0.00000198,-0.00000446,-0
 .00000369,0.00000379,-0.00000962,-0.00008399,0.00005466,0.00008280,-0.
 00071147,-0.00095846,-0.00178038,-0.00013100,0.00005340,-0.00000894,-0
 .00080730,0.00038221,0.00033701,0.00321407,0.00031519,-0.00133409,-0.0
 0001272,0.00003097,0.00005057,0.03538876,-0.05460253,0.06836382,-0.000
 02946,0.00000069,0.00001529,-0.00002154,0.00000099,-0.00001255,0.00002
 533,0.00000010,0.00000016,-0.00003582,-0.00000597,-0.00000635,-0.00000
 819,-0.00000143,0.00013605,0.00006107,0.00000723,0.00000729,-0.0000033
 3,-0.00000143,0.00000334,-0.00003615,0.00000677,0.00005117,0.00004717,
 0.00003667,-0.00014217,-0.00029171,0.00021511,0.00013111,0.00106659,-0
 .00003202,-0.00096334,-0.01520627,-0.02303452,-0.00829658,-0.11866125,
 -0.11309066,-0.03611360,-0.00390410,-0.00246041,-0.00472298,-0.0004749
 9,-0.00008623,0.00211329,-0.00001002,-0.00001888,-0.00001455,-0.000223
 97,-0.00008955,0.00056261,-0.00016880,0.00046359,-0.00032600,0.0010312
 4,0.00032198,-0.00082471,0.00001639,0.00001696,0.00000947,-0.00000159,
 -0.00000222,0.00000257,0.00000541,-0.00000355,-0.00000395,-0.00000300,
 -0.00000036,0.00000278,-0.00000066,0.00000117,-0.00000017,-0.00000012,
 -0.00000185,0.00000075,0.00015917,-0.00011086,0.00008605,-0.00001161,0
 .00000409,0.00000632,0.00000659,-0.00001223,0.00000296,0.00003826,-0.0
 0004857,0.00006450,0.00020828,0.00037174,-0.00104995,0.00002784,-0.000
 02212,0.00003722,-0.00487449,0.00024392,0.00262117,0.00083767,0.000059
 36,-0.00051778,0.00004505,0.00003457,-0.00007549,0.00941582,0.01412319
 ,0.00562881,0.13095808,0.00001164,0.00000233,-0.00002195,0.00005258,-0
 .00000129,0.00003286,-0.00006793,0.00000001,0.00001859,0.00007294,-0.0
 0000194,0.00000136,0.00006455,-0.00000409,0.00000206,-0.00002132,-0.00
 000354,-0.00003768,-0.00000275,0.00000005,-0.00000083,-0.00005947,-0.0
 0000212,0.00001146,0.00005301,0.00000370,-0.00004402,-0.00002944,-0.00
 003736,0.00036550,-0.00006796,0.00013748,-0.00016638,0.00077278,0.0015
 6231,0.00157372,-0.11211855,-0.21948540,-0.06130350,0.00030253,0.00197
 869,0.00072247,0.00032041,0.00040382,0.00019210,-0.00000110,0.00000274
 ,-0.00000304,-0.00077920,-0.00011687,0.00002144,-0.00069583,0.00058420
 ,0.00033873,0.00131407,-0.00092800,0.00100129,0.00000033,0.00000191,0.
 00000146,0.00000128,0.00000029,-0.00000079,-0.00000499,-0.00000019,0.0
 0000350,0.00000163,-0.00000001,-0.00000049,-0.00000026,-0.00000100,-0.
 00000116,-0.00000010,0.00000125,-0.00000144,0.00002513,0.00002846,-0.0
 0000594,0.00000027,-0.00000091,0.00000275,0.00000170,-0.00000255,0.000
 00274,0.00008422,-0.00000221,-0.00022200,0.00077576,-0.00036341,0.0002
 2027,0.00018377,-0.00001109,0.00000580,0.00061675,0.00134647,0.0001199
 2,-0.00012256,0.00074368,0.00026316,-0.00002492,0.00000083,-0.00005548
 ,-0.01376786,-0.02060153,-0.00839495,0.12273694,0.23455807,-0.00000895
 ,-0.00000143,0.00002900,-0.00006218,0.00000076,-0.00003768,0.00007634,
 0.00000622,-0.00002940,-0.00005868,-0.00000383,0.00000882,-0.00008136,
 -0.00001189,-0.00006546,0.00001167,-0.00000373,0.00003199,0.00000659,-
 0.00000007,0.00000159,0.00005032,-0.00000444,0.00000268,-0.00001051,-0
 .00000960,-0.00001737,0.00033878,-0.00017433,-0.00011339,-0.00061010,0
 .00044934,0.00106035,0.00848457,0.01396515,0.00456633,-0.03752832,-0.0
 6430541,-0.06806343,-0.01948814,-0.03143089,-0.00769712,0.00148011,0.0
 0239434,-0.00019457,0.00000432,0.00000262,0.00001227,0.00052323,-0.000
 00368,0.00004344,-0.00048348,0.00045345,-0.00077120,-0.00054132,0.0043
 8531,-0.00524474,-0.00000358,-0.00000314,-0.00000983,-0.00000037,0.000
 00018,-0.00000027,0.00000581,0.00000041,-0.00000437,-0.00000178,-0.000
 00030,-0.00000036,-0.00000059,0.00000081,0.00000171,-0.00000001,-0.000
 00084,0.00000092,-0.00010564,0.00007311,-0.00003534,0.00000269,-0.0000
 0169,-0.00000444,0.00000018,0.00000205,-0.00000549,-0.00009649,0.00000
 663,-0.00000082,-0.00068522,0.00103338,-0.00170188,-0.00011810,-0.0000
 5655,-0.00001202,0.00327140,-0.00006874,-0.00134513,-0.00080746,-0.000
 37452,0.00032872,-0.00001378,-0.00003432,0.00004503,0.00455068,0.00701
 010,0.00257882,0.04211028,0.06606618,0.07616579,0.00002340,0.00000180,
 -0.00004591,0.00003659,-0.00000040,0.00002592,-0.00005424,-0.00000150,
 0.00002643,0.00006932,-0.00000002,0.00002112,0.00003295,0.00000242,-0.
 00005569,-0.00004495,-0.00000174,0.00003649,-0.00000799,0.00000016,-0.
 00000892,-0.00004174,0.00000087,-0.00003719,-0.00003999,-0.00000311,0.
 00008364,-0.00001141,-0.00000363,0.00012452,-0.00047697,-0.00000579,0.
 00002440,0.00048977,-0.00005179,0.00145660,-0.00531696,-0.00015397,0.0
 0157556,0.00834551,-0.00164936,0.05256265,-0.05909224,0.00272934,-0.09
 863863,-0.00000313,-0.00000014,-0.00000219,0.00004497,0.00000218,-0.00
 005736,-0.00002193,-0.00000033,0.00000969,0.00121598,0.00031550,-0.007
 30564,-0.00001085,-0.00002020,0.00000668,-0.00000255,-0.00000012,0.000
 00120,-0.00000878,-0.00000036,0.00000611,0.00000399,0.00000007,-0.0000
 0118,0.00000255,-0.00000063,-0.00000091,0.00000256,0.00000074,-0.00000
 084,-0.00002147,-0.00000131,0.00002553,0.00000498,0.00000020,-0.000005
 18,-0.00001127,0.00001949,0.00000800,0.00000653,-0.00000661,-0.0000075
 3,0.00002140,-0.00000083,0.00002806,0.00000310,0.00000015,-0.00000837,
 0.00003653,-0.00010442,0.00004294,0.00003505,0.00010230,0.00005026,-0.
 00003365,-0.00000068,0.00000823,-0.00003894,-0.00017798,-0.00013672,-0
 .00005138,0.00018145,-0.00014037,0.05490881,0.00000162,-0.00000449,-0.
 00000238,0.00000314,-0.00000176,0.00000180,-0.00000381,0.00000628,0.00
 000155,0.00000356,0.00000610,0.00000046,0.00000309,-0.00001299,-0.0000
 0251,-0.00000302,-0.00000205,-0.00000030,-0.00000041,0.00000005,-0.000
 00041,-0.00000097,-0.00001307,-0.00000250,-0.00000427,0.00000656,0.000
 00445,0.00000036,-0.00004043,0.00000111,-0.00001416,0.00000798,0.00000
 188,0.00001939,0.00084149,0.00006347,-0.00025025,0.00412598,0.00010230
 ,-0.00010683,0.00356625,0.00168595,0.00116386,-0.01691901,0.01369882,-
 0.00000044,0.00001667,0.00000063,0.00000098,0.00000467,-0.00000356,-0.
 00000080,-0.00001467,0.00000057,0.00035521,-0.00600797,-0.00036693,0.0
 0000102,-0.00000188,0.00000219,-0.00000012,0.00000497,0.00000007,-0.00
 000069,0.00000574,0.00000054,0.00000018,0.00000117,0.,0.00000058,0.000
 00072,0.00000063,-0.00000042,0.00000092,-0.00000062,-0.00000173,0.0000
 2061,0.00000154,0.00000053,0.00000203,-0.00000024,-0.00000236,-0.00000
 013,-0.00000195,0.00000331,0.00000022,-0.00001866,0.00000110,0.0000133
 2,0.00000155,0.00000003,0.00001213,-0.00000047,0.00003730,-0.00000313,
 0.00002380,-0.00004024,0.00000527,-0.00001847,-0.00000159,0.00000633,0
 .00000106,-0.00037002,0.00021188,-0.00071580,0.00038850,0.00018963,0.0
 0070007,-0.00117896,0.01396493,-0.00003852,-0.00000217,0.00005531,-0.0
 0008455,0.00000063,-0.00004693,0.00010332,0.00000345,-0.00003752,-0.00
 008715,-0.00000174,-0.00000243,-0.00007871,-0.00000155,0.00004905,0.00
 007611,-0.00000100,0.00001609,0.00000842,-0.00000053,0.00000844,0.0000
 1923,-0.00000199,0.00005168,0.00011298,0.00000536,-0.00010028,-0.00000
 153,-0.00000108,-0.00003693,0.00027625,0.00000759,-0.00003205,-0.00073
 173,0.00003646,-0.00066325,0.00460531,0.00013616,0.00153127,0.00492859
 ,0.00116813,-0.03081411,-0.05030781,0.01422517,-0.47283675,0.00000362,
 0.00000074,-0.00000574,-0.00001579,-0.00000279,0.00009751,0.00002229,0
 .00000084,-0.00002860,-0.00853968,-0.00038019,0.00285587,0.00001653,0.
 00001888,-0.00000008,0.00000058,0.00000008,0.00000227,0.00001615,0.000
 00064,-0.00000929,-0.00000627,-0.00000006,0.00000165,-0.00000137,0.000
 00198,0.00000085,-0.00000129,-0.00000199,0.00000079,0.00003888,0.00000
 171,-0.00001741,-0.00001461,-0.00000036,0.00000857,0.00001691,-0.00001
 836,-0.00000148,-0.00000848,0.00000803,0.00001117,-0.00003295,0.000000
 89,-0.00002502,-0.00000456,-0.00000042,0.00002176,0.00005854,0.0000893
 0,-0.00006036,0.00005763,-0.00008392,-0.00006632,0.00003624,0.00000154
 ,-0.00002489,-0.00039936,0.00016175,0.00039758,-0.00037107,-0.00018461
 ,0.00043136,0.05033608,-0.01517744,0.49925643,-0.00015595,-0.00005529,
 0.00023254,-0.00027434,0.00001236,-0.00026291,0.00043532,0.00000244,-0
 .00015327,-0.00056462,-0.00004555,-0.00022686,-0.00059957,0.00031411,0
 .00018859,0.00028019,0.00006478,0.00016715,0.00002193,0.00000062,0.000
 02385,0.00042449,-0.00001310,0.00027985,0.00057140,-0.00013221,0.00030
 099,-0.00143686,-0.00260096,-0.00105110,-0.00190006,0.00066928,0.00255
 816,-0.00014748,0.00047335,0.00014096,-0.00021727,-0.00013170,0.000273
 79,-0.00003904,0.00006371,-0.00020525,0.00003657,0.00000228,0.00000733
 ,0.00000375,0.00000881,-0.00000501,-0.01694253,0.02698456,-0.01834626,
 -0.07404420,0.07485778,-0.03954291,0.00016698,-0.00001992,0.00012085,0
 .00000298,0.00000651,-0.00000422,-0.00000623,-0.00000912,0.00000484,0.
 00002502,0.00000666,-0.00002744,-0.00000799,-0.00000028,0.00000998,-0.
 00001665,0.00000196,0.00000635,-0.00001426,-0.00000026,0.00000467,0.00
 002868,-0.00003708,0.00001917,-0.00001042,-0.00000036,-0.00000369,0.00
 000728,-0.00000555,-0.00000359,0.00389889,-0.00848733,0.00530245,0.004
 55159,-0.01135938,0.00478345,0.00099031,-0.00085160,0.00031388,0.00006
 160,-0.00000502,-0.00008617,0.00000577,-0.00002902,-0.00009440,-0.0001
 3389,0.00009167,-0.00013031,0.00003920,-0.00007681,-0.00010160,0.00006
 850,0.00019051,-0.00007054,0.00000646,-0.00000267,-0.00000823,0.084884
 43,0.00002669,-0.00001293,-0.00002090,-0.00001291,-0.00000050,0.000011
 92,0.00000535,-0.00000039,0.00001123,-0.00000819,0.00000111,0.00002981
 ,0.00009065,0.00010504,-0.00004775,-0.00005480,0.00000760,-0.00000515,
 -0.00000110,0.00000087,-0.00000343,0.00000197,-0.00001252,-0.00002957,
 -0.00027700,0.00004353,-0.00007305,0.00041714,-0.00054116,-0.00002209,
 -0.00129245,-0.00044217,-0.00099701,-0.00001036,0.00003623,0.00007285,
 -0.00000721,-0.00000085,0.00006844,0.00003127,-0.00000524,-0.00014604,
 -0.00003177,0.00000206,0.00004465,0.00000002,0.00000373,0.00000517,-0.
 00031525,0.00348557,-0.00161760,0.07328497,-0.21602937,0.10231714,0.00
 001813,0.00000057,0.00006380,0.00000035,-0.00000207,-0.00000069,-0.000
 00048,-0.00000088,-0.00000077,0.00000054,0.00000047,0.00000150,0.00000
 021,0.00000021,-0.00000069,0.00000196,0.00000146,0.00000206,0.00000223
 ,-0.00000120,0.00000187,-0.00001041,-0.00003963,0.00000074,0.00000081,
 0.00000008,-0.00000073,0.,0.00000179,-0.00000127,0.00869030,-0.0224186
 1,0.01250267,-0.00116886,0.00043558,-0.00101514,0.00049249,0.00065401,
 -0.00005096,-0.00000539,-0.00002681,-0.00003877,-0.00003320,-0.0000309
 4,0.00000306,0.00001049,-0.00000106,0.00005604,0.00004555,-0.00001665,
 -0.00000995,-0.00001072,0.00001762,-0.00006071,0.00000719,-0.00000033,
 -0.00000913,-0.07988817,0.23478578,0.00005016,0.00000961,-0.00019120,0
 .00033935,-0.00000457,0.00023340,-0.00049904,-0.00000923,0.00014029,0.
 00065689,0.00001454,0.00011537,0.00010358,-0.00000958,-0.00008643,-0.0
 0011816,-0.00000067,-0.00009066,-0.00002736,0.00000099,-0.00002258,-0.
 00049954,-0.00000847,-0.00020587,0.00019711,-0.00005091,0.00034611,-0.
 00155990,-0.00001153,0.00011057,0.00196639,0.00042783,0.00148673,0.000
 21576,0.00020329,-0.00011581,0.00005858,0.00060451,-0.00059856,-0.0001
 0541,-0.00015701,0.00043968,0.00003757,-0.00001838,-0.00011531,-0.0000
 1110,0.00000403,-0.00001241,-0.00499417,-0.00173689,-0.00185007,-0.036
 32770,0.10252278,-0.10404285,-0.00021830,0.00001350,-0.00031595,-0.000
 00902,-0.00000015,0.00000277,0.00000290,0.00000043,-0.00000026,-0.0000
 3097,-0.00000018,0.00002840,0.00000679,0.00000064,-0.00000844,0.000017
 11,0.00000174,-0.00000623,0.00001622,-0.00000081,-0.00000654,0.0000033
 2,-0.00000399,-0.00004721,0.00000900,0.00000005,0.00000216,-0.00001005
 ,-0.00000109,0.00000341,0.00614479,-0.01430178,0.00747659,-0.01088505,
 0.02414745,-0.01202469,-0.00017125,-0.00027276,0.00042204,-0.00008907,
 -0.00001402,0.00009483,0.00003720,-0.00004898,0.00001144,0.00020504,0.
 00002366,-0.00003817,0.00006295,0.00022282,0.00001299,-0.00015197,-0.0
 0052310,0.00004544,-0.00000749,0.00001779,0.00001176,0.04558489,-0.111
 04158,0.10879525\\0.00000064,0.00000031,-0.00000113,0.00000005,0.00000
 172,0.00000520,-0.00000373,-0.00000309,-0.00000428,0.00000079,0.000005
 83,-0.00000278,0.00000172,-0.00000356,0.00000396,-0.00000090,-0.000000
 05,0.00000702,0.00000318,-0.00000018,0.00000147,0.00000444,-0.00000142
 ,-0.00000252,-0.00000155,0.00000065,-0.00000241,-0.00000010,0.00000349
 ,-0.00001111,-0.00000546,-0.00000413,0.00000821,0.00000773,-0.00000075
 ,-0.00000387,-0.00000458,-0.00000026,-0.00000055,-0.00002053,0.0000031
 3,0.00000996,0.00001458,-0.00000065,-0.00001006,-0.00000966,0.00000064
 ,-0.00000093,0.00000318,0.00000165,-0.00000009,-0.00000336,0.00000066,
 -0.00000133,0.00000412,-0.00000114,-0.00000072,0.00000226,0.00000006,-
 0.00000146,0.00000045,0.00000071,0.00000026,0.00000042,-0.00000053,0.0
 0000087,0.00000069,-0.00000046,0.00000099,0.00000113,0.00000060,0.0000
 0064,0.00000042,0.00000021,0.00000080,0.00000269,-0.00000098,0.0000025
 9,0.00000253,-0.00000191,0.00000253,0.00000215,0.00000082,0.00000008,0
 .00000110,-0.00000042,-0.00000069,0.00000063,0.00000022,-0.00000301,0.
 00000070,0.00000139,0.00000004,-0.00000268,-0.00000107,0.00000021,-0.0
 0000221,0.00000058,0.,0.00000168,-0.00000169,0.00000667,-0.00000083,-0
 .00000014,-0.00000147,-0.00000019,0.00000068,-0.00000072,-0.00000136,-
 0.00000004,-0.00000094,-0.00000015,-0.00000089,-0.00000146\\\@


 FESTINA LENTE!
     - IMPERATOR AUGUSTUS 
 Job cpu time:  0 days 12 hours 18 minutes 16.6 seconds.
 File lengths (MBytes):  RWF=    921 Int=      0 D2E=      0 Chk=     23 Scr=      1
 Normal termination of Gaussian 03 at Tue Nov 10 23:49:25 2009.
